
          ---- Aqueous concentrations vs. grid blocks at specified times ----

   Unit: 
    - Aqueous species: Total concencentrations in mol/L     
    - Component in dry nodes in mol/L medium

VARIABLES =X,        Y,       Z,  P(bar)  ,      Sg,       Sl  ,     T(C)  ,  aH2O,    pH     ,t_tracer   ,
ZONE T= "0.100000E+00 d"  F=POINT
   -200.000   -200.000     0.000  0.3006E+03  0.0000E+00  0.1000E+01 169.627  1.0000  5.6452  0.2188E-02
   -200.000   -152.300     0.000  0.3006E+03  0.0000E+00  0.1000E+01 138.929  1.0000  5.6452  0.3986E-02
   -200.000   -100.000     0.000  0.3006E+03  0.0000E+00  0.1000E+01 112.984  1.0000  5.6452  0.3821E-02
   -200.000    -54.910     0.000  0.3007E+03  0.0000E+00  0.1000E+01  97.673  1.0000  5.6452  0.2905E-02
   -200.000      0.000     0.000  0.3007E+03  0.0000E+00  0.1000E+01  98.951  1.0000  5.6452  0.3021E-02
   -200.000     39.920     0.000  0.3007E+03  0.0000E+00  0.1000E+01 107.044  1.0000  5.6452  0.3436E-02
   -200.000    100.000     0.000  0.3006E+03  0.0000E+00  0.1000E+01 111.567  1.0000  5.6452  0.3556E-02
   -200.000    159.500     0.000  0.3006E+03  0.0000E+00  0.1000E+01 141.024  1.0000  5.6452  0.3634E-02
   -200.000    200.000     0.000  0.3006E+03  0.0000E+00  0.1000E+01 171.973  1.0000  5.6452  0.1970E-02
   -182.500    -54.910     0.000  0.3007E+03  0.0000E+00  0.1000E+01  86.801  1.0000  5.6452  0.1517E-02
   -181.700     39.920     0.000  0.3007E+03  0.0000E+00  0.1000E+01  88.908  1.0000  5.6452  0.1464E-02
   -175.700    -12.590     0.000  0.3007E+03  0.0000E+00  0.1000E+01  82.764  1.0000  5.6452  0.6847E-03
   -173.100    159.500     0.000  0.3006E+03  0.0000E+00  0.1000E+01 141.627  1.0000  5.6452  0.3517E-02
   -172.200   -152.300     0.000  0.3006E+03  0.0000E+00  0.1000E+01 137.537  1.0000  5.6452  0.3510E-02
   -167.100    -98.110     0.000  0.3006E+03  0.0000E+00  0.1000E+01  97.767  1.0000  5.6452  0.2762E-02
   -165.400     85.020     0.000  0.3006E+03  0.0000E+00  0.1000E+01  90.320  1.0000  5.6452  0.1746E-02
   -161.200    119.500     0.000  0.3006E+03  0.0000E+00  0.1000E+01 108.819  1.0000  5.6452  0.3321E-02
   -155.000     -0.553     0.000  0.3007E+03  0.0000E+00  0.1000E+01  80.891  1.0000  5.6452  0.3221E-04
   -152.300    -47.540     0.000  0.3007E+03  0.0000E+00  0.1000E+01  81.697  1.0000  5.6452  0.2889E-03
   -151.300     37.510     0.000  0.3007E+03  0.0000E+00  0.1000E+01  80.980  1.0000  5.6452  0.7642E-04
   -145.000    200.000     0.000  0.3006E+03  0.0000E+00  0.1000E+01 167.507  1.0000  5.6452  0.2327E-02
   -142.800     64.690     0.000  0.3007E+03  0.0000E+00  0.1000E+01  81.621  1.0000  5.6452  0.2726E-03
   -137.700    -87.210     0.000  0.3006E+03  0.0000E+00  0.1000E+01  82.987  1.0000  5.6452  0.6592E-03
   -137.500   -200.000     0.000  0.3006E+03  0.0000E+00  0.1000E+01 171.478  1.0000  5.6452  0.1963E-02
   -136.900      7.325     0.000  0.3007E+03  0.0000E+00  0.1000E+01  80.850  1.0000  5.6452  0.1354E-05
   -135.000   -127.000     0.000  0.3006E+03  0.0000E+00  0.1000E+01 100.036  1.0000  5.6452  0.2759E-02
   -130.800    140.500     0.000  0.3006E+03  0.0000E+00  0.1000E+01 114.231  1.0000  5.6452  0.3374E-02
   -129.600    172.700     0.000  0.3006E+03  0.0000E+00  0.1000E+01 146.631  1.0000  5.6452  0.3204E-02
   -129.500   -169.000     0.000  0.3006E+03  0.0000E+00  0.1000E+01 139.296  1.0000  5.6452  0.3370E-02
   -127.900    -18.930     0.000  0.3007E+03  0.0000E+00  0.1000E+01  80.848  1.0000  5.6452  0.1024E-06
   -126.500    101.700     0.000  0.3006E+03  0.0000E+00  0.1000E+01  87.040  1.0000  5.6452  0.1324E-02
   -123.400     22.610     0.000  0.3007E+03  0.0000E+00  0.1000E+01  80.848  1.0000  5.6452  0.1020E-07
   -117.700    -62.670     0.000  0.3007E+03  0.0000E+00  0.1000E+01  81.016  1.0000  5.6452  0.6130E-04
   -117.500     47.740     0.000  0.3007E+03  0.0000E+00  0.1000E+01  80.852  1.0000  5.6452  0.2368E-05
   -116.500    -38.140     0.000  0.3007E+03  0.0000E+00  0.1000E+01  80.849  1.0000  5.6452  0.1571E-06
   -103.700     71.660     0.000  0.3006E+03  0.0000E+00  0.1000E+01  81.025  1.0000  5.6452  0.7663E-04
   -103.700   -155.700     0.000  0.3006E+03  0.0000E+00  0.1000E+01 126.155  1.0000  5.6452  0.3224E-02
   -102.900    -89.670     0.000  0.3006E+03  0.0000E+00  0.1000E+01  82.112  1.0000  5.6452  0.4075E-03
   -101.100    200.000     0.000  0.3006E+03  0.0000E+00  0.1000E+01 161.846  1.0000  5.6452  0.2663E-02
   -100.000    -23.500     0.000  0.3008E+03  0.0000E+00  0.1000E+01  80.848  1.0000  5.6452  0.9848E-10
   -100.000      0.000     0.000  0.3009E+03  0.0000E+00  0.1000E+01  80.845  1.0000  5.6452  0.9843E-10
   -100.000     23.500     0.000  0.3007E+03  0.0000E+00  0.1000E+01  80.848  1.0000  5.6452  0.9892E-10
    -95.380    126.400     0.000  0.3006E+03  0.0000E+00  0.1000E+01  98.784  1.0000  5.6452  0.2360E-02
    -93.550   -117.900     0.000  0.3006E+03  0.0000E+00  0.1000E+01  90.132  1.0000  5.6452  0.1612E-02
    -93.390    163.700     0.000  0.3006E+03  0.0000E+00  0.1000E+01 134.591  1.0000  5.6452  0.3243E-02
    -87.670     41.320     0.000  0.3007E+03  0.0000E+00  0.1000E+01  80.850  1.0000  5.6452  0.1042E-06
    -87.500   -200.000     0.000  0.3006E+03  0.0000E+00  0.1000E+01 155.068  1.0000  5.6452  0.2706E-02
    -84.730     92.270     0.000  0.3006E+03  0.0000E+00  0.1000E+01  82.225  1.0000  5.6452  0.4000E-03
    -84.270      9.080     0.000  0.3008E+03  0.0000E+00  0.1000E+01  80.848  1.0000  5.6452  0.9843E-10
    -83.710    -52.640     0.000  0.3006E+03  0.0000E+00  0.1000E+01  80.866  1.0000  5.6452  0.6960E-05
    -71.910     59.610     0.000  0.3006E+03  0.0000E+00  0.1000E+01  80.877  1.0000  5.6452  0.1288E-04
    -69.180   -162.200     0.000  0.3006E+03  0.0000E+00  0.1000E+01 129.857  1.0000  5.6452  0.3395E-02
    -69.160   -200.000     0.000  0.3005E+03  0.0000E+00  0.1000E+01 159.473  1.0000  5.6452  0.2650E-02
    -69.160   -182.500     0.000  0.3005E+03  0.0000E+00  0.1000E+01 150.989  1.0000  5.6452  0.2958E-02
    -67.500   -143.400     0.000  0.3006E+03  0.0000E+00  0.1000E+01 112.260  1.0000  5.6452  0.2899E-02
    -67.150    -17.220     0.000  0.3007E+03  0.0000E+00  0.1000E+01  80.849  1.0000  5.6452  0.3295E-08
    -67.110    -83.950     0.000  0.3006E+03  0.0000E+00  0.1000E+01  81.738  1.0000  5.6452  0.2965E-03
    -64.870    200.000     0.000  0.3005E+03  0.0000E+00  0.1000E+01 163.316  1.0000  5.6452  0.2552E-02
    -64.190     22.330     0.000  0.3007E+03  0.0000E+00  0.1000E+01  80.850  1.0000  5.6452  0.1349E-07
    -59.630    140.500     0.000  0.3005E+03  0.0000E+00  0.1000E+01 111.319  1.0000  5.6452  0.2829E-02
    -59.430   -127.200     0.000  0.3006E+03  0.0000E+00  0.1000E+01  99.673  1.0000  5.6452  0.2704E-02
    -59.400    109.000     0.000  0.3006E+03  0.0000E+00  0.1000E+01  87.084  1.0000  5.6452  0.1159E-02
    -57.830    -49.000     0.000  0.3006E+03  0.0000E+00  0.1000E+01  80.867  1.0000  5.6452  0.9107E-05
    -57.010    174.300     0.000  0.3005E+03  0.0000E+00  0.1000E+01 144.068  1.0000  5.6452  0.3090E-02
    -54.170     78.080     0.000  0.3006E+03  0.0000E+00  0.1000E+01  81.266  1.0000  5.6452  0.1429E-03
    -49.980   -109.300     0.000  0.3006E+03  0.0000E+00  0.1000E+01  84.146  1.0000  5.6452  0.8219E-03
    -45.400     42.910     0.000  0.3006E+03  0.0000E+00  0.1000E+01  80.862  1.0000  5.6452  0.6342E-05
    -44.240      7.513     0.000  0.3006E+03  0.0000E+00  0.1000E+01  80.851  1.0000  5.6452  0.1455E-06
    -40.970   -167.100     0.000  0.3005E+03  0.0000E+00  0.1000E+01 141.468  1.0000  5.6452  0.3272E-02
    -39.310    -21.080     0.000  0.3006E+03  0.0000E+00  0.1000E+01  80.854  1.0000  5.6452  0.2537E-05
    -37.500   -200.000     0.000  0.3005E+03  0.0000E+00  0.1000E+01 158.552  1.0000  5.6452  0.2753E-02
    -36.710    -70.070     0.000  0.3006E+03  0.0000E+00  0.1000E+01  81.548  1.0000  5.6452  0.2488E-03
    -34.440    159.800     0.000  0.3005E+03  0.0000E+00  0.1000E+01 133.485  1.0000  5.6452  0.3150E-02
    -31.850   -142.400     0.000  0.3005E+03  0.0000E+00  0.1000E+01 115.570  1.0000  5.6452  0.3174E-02
    -31.420     94.060     0.000  0.3005E+03  0.0000E+00  0.1000E+01  84.122  1.0000  5.6452  0.7332E-03
    -30.190    -46.340     0.000  0.3006E+03  0.0000E+00  0.1000E+01  80.885  1.0000  5.6452  0.2473E-04
    -29.330    -93.450     0.000  0.3005E+03  0.0000E+00  0.1000E+01  83.637  1.0000  5.6452  0.7608E-03
    -29.230     67.620     0.000  0.3005E+03  0.0000E+00  0.1000E+01  81.275  1.0000  5.6452  0.1669E-03
    -28.660    124.200     0.000  0.3005E+03  0.0000E+00  0.1000E+01  99.674  1.0000  5.6452  0.2220E-02
    -28.610    200.000     0.000  0.3005E+03  0.0000E+00  0.1000E+01 162.880  1.0000  5.6452  0.2543E-02
    -25.250    181.400     0.000  0.3005E+03  0.0000E+00  0.1000E+01 148.110  1.0000  5.6452  0.3024E-02
    -22.270     28.290     0.000  0.3005E+03  0.0000E+00  0.1000E+01  80.867  1.0000  5.6452  0.1114E-04
    -21.680   -200.000     0.000  0.3005E+03  0.0000E+00  0.1000E+01 162.010  1.0000  5.6452  0.2645E-02
    -21.680   -183.500     0.000  0.3005E+03  0.0000E+00  0.1000E+01 150.546  1.0000  5.6452  0.3098E-02
    -20.890    141.600     0.000  0.3005E+03  0.0000E+00  0.1000E+01 120.030  1.0000  5.6452  0.2936E-02
    -19.210     12.330     0.000  0.3005E+03  0.0000E+00  0.1000E+01  80.856  1.0000  5.6452  0.3702E-05
    -18.490     47.040     0.000  0.3005E+03  0.0000E+00  0.1000E+01  80.999  1.0000  5.6452  0.6764E-04
    -17.020   -117.700     0.000  0.3005E+03  0.0000E+00  0.1000E+01  94.206  1.0000  5.6452  0.1752E-02
    -15.250     -2.885     0.000  0.3005E+03  0.0000E+00  0.1000E+01  80.858  1.0000  5.6452  0.5320E-05
    -12.170    103.100     0.000  0.3005E+03  0.0000E+00  0.1000E+01  89.232  1.0000  5.6452  0.1348E-02
      0.000   -200.000     0.000  0.3005E+03  0.0000E+00  0.1000E+01 169.546  1.0000  5.6452  0.2191E-02
      0.000   -177.800     0.000  0.3005E+03  0.0000E+00  0.1000E+01 163.525  1.0000  5.6452  0.2553E-02
      0.000   -155.500     0.000  0.3005E+03  0.0000E+00  0.1000E+01 142.123  1.0000  5.6452  0.3120E-02
      0.000   -133.300     0.000  0.3005E+03  0.0000E+00  0.1000E+01 121.613  1.0000  5.6452  0.3028E-02
      0.000   -111.100     0.000  0.3005E+03  0.0000E+00  0.1000E+01 110.266  1.0000  5.6452  0.2713E-02
      0.000    -88.890     0.000  0.3005E+03  0.0000E+00  0.1000E+01  94.956  1.0000  5.6452  0.2039E-02
      0.000    -66.670     0.000  0.3005E+03  0.0000E+00  0.1000E+01  85.400  1.0000  5.6452  0.1017E-02
      0.000    -44.440     0.000  0.3005E+03  0.0000E+00  0.1000E+01  82.070  1.0000  5.6452  0.4612E-03
      0.000    -22.220     0.000  0.3005E+03  0.0000E+00  0.1000E+01  81.537  1.0000  5.6452  0.2857E-03
      0.000      0.000     0.000  0.3005E+03  0.0000E+00  0.1000E+01  81.154  1.0000  5.6452  0.1605E-03
      0.000     22.220     0.000  0.3005E+03  0.0000E+00  0.1000E+01  81.417  1.0000  5.6452  0.2500E-03
      0.000     44.440     0.000  0.3005E+03  0.0000E+00  0.1000E+01  82.353  1.0000  5.6452  0.5345E-03
      0.000     66.670     0.000  0.3005E+03  0.0000E+00  0.1000E+01  84.124  1.0000  5.6452  0.9359E-03
      0.000     88.890     0.000  0.3005E+03  0.0000E+00  0.1000E+01  95.500  1.0000  5.6452  0.2018E-02
      0.000    111.100     0.000  0.3005E+03  0.0000E+00  0.1000E+01 106.276  1.0000  5.6452  0.2592E-02
      0.000    133.300     0.000  0.3005E+03  0.0000E+00  0.1000E+01 134.530  1.0000  5.6452  0.3073E-02
      0.000    155.500     0.000  0.3005E+03  0.0000E+00  0.1000E+01 145.241  1.0000  5.6452  0.3015E-02
      0.000    177.800     0.000  0.3005E+03  0.0000E+00  0.1000E+01 160.361  1.0000  5.6452  0.2608E-02
      0.000    200.000     0.000  0.3005E+03  0.0000E+00  0.1000E+01 168.110  1.0000  5.6452  0.2204E-02
     14.010    -47.880     0.000  0.3005E+03  0.0000E+00  0.1000E+01 150.422  1.0000  5.6452  0.7316E-03
     15.110    180.700     0.000  0.3005E+03  0.0000E+00  0.1000E+01 192.856  1.0000  5.6452  0.1516E-04
     15.670    -27.180     0.000  0.3005E+03  0.0000E+00  0.1000E+01 139.461  1.0000  5.6452  0.7972E-03
     17.560   -180.700     0.000  0.3005E+03  0.0000E+00  0.1000E+01 192.875  1.0000  5.6452  0.7995E-05
     19.080     -1.771     0.000  0.3005E+03  0.0000E+00  0.1000E+01 138.384  1.0000  5.6452  0.7457E-03
     20.370     74.350     0.000  0.3005E+03  0.0000E+00  0.1000E+01 166.438  1.0000  5.6452  0.5971E-03
     21.860    165.600     0.000  0.3005E+03  0.0000E+00  0.1000E+01 192.851  1.0000  5.6452  0.1406E-04
     23.370   -155.800     0.000  0.3005E+03  0.0000E+00  0.1000E+01 192.824  1.0000  5.6452  0.2664E-04
     23.590    -69.980     0.000  0.3005E+03  0.0000E+00  0.1000E+01 174.976  1.0000  5.6452  0.3630E-03
     24.130    -92.560     0.000  0.3005E+03  0.0000E+00  0.1000E+01 189.250  1.0000  5.6452  0.1026E-03
     24.410    200.000     0.000  0.3005E+03  0.0000E+00  0.1000E+01 192.888  1.0000  5.6452  0.3089E-05
     26.270    113.300     0.000  0.3005E+03  0.0000E+00  0.1000E+01 190.097  1.0000  5.6452  0.1028E-03
     27.480     25.270     0.000  0.3005E+03  0.0000E+00  0.1000E+01 152.380  1.0000  5.6452  0.6016E-03
     27.550     49.660     0.000  0.3005E+03  0.0000E+00  0.1000E+01 164.196  1.0000  5.6452  0.5003E-03
     29.060   -118.700     0.000  0.3005E+03  0.0000E+00  0.1000E+01 192.389  1.0000  5.6452  0.4006E-04
     31.640   -136.300     0.000  0.3005E+03  0.0000E+00  0.1000E+01 192.798  1.0000  5.6452  0.2342E-04
     34.790    145.500     0.000  0.3005E+03  0.0000E+00  0.1000E+01 192.783  1.0000  5.6452  0.9688E-05
     36.990     88.420     0.000  0.3005E+03  0.0000E+00  0.1000E+01 188.490  1.0000  5.6452  0.1222E-03
     37.500   -200.000     0.000  0.3005E+03  0.0000E+00  0.1000E+01 192.895  1.0000  5.6452  0.1446E-06
     43.010   -175.600     0.000  0.3005E+03  0.0000E+00  0.1000E+01 192.896  1.0000  5.6452  0.7921E-07
     43.190    -21.400     0.000  0.3005E+03  0.0000E+00  0.1000E+01 179.537  1.0000  5.6452  0.2804E-03
     45.890    -85.580     0.000  0.3005E+03  0.0000E+00  0.1000E+01 191.914  1.0000  5.6452  0.2354E-04
     46.270    174.400     0.000  0.3005E+03  0.0000E+00  0.1000E+01 192.895  1.0000  5.6452  0.1983E-06
     46.620    -44.030     0.000  0.3005E+03  0.0000E+00  0.1000E+01 187.552  1.0000  5.6452  0.1221E-03
     46.900     14.160     0.000  0.3005E+03  0.0000E+00  0.1000E+01 182.529  1.0000  5.6452  0.2128E-03
     47.510    122.200     0.000  0.3005E+03  0.0000E+00  0.1000E+01 192.865  1.0000  5.6452  0.1022E-05
     48.830    200.000     0.000  0.3005E+03  0.0000E+00  0.1000E+01 192.896  1.0000  5.6452  0.2780E-07
     49.510     62.860     0.000  0.3005E+03  0.0000E+00  0.1000E+01 189.848  1.0000  5.6452  0.6930E-04
     53.660     36.660     0.000  0.3005E+03  0.0000E+00  0.1000E+01 188.931  1.0000  5.6452  0.8551E-04
     53.820     -4.071     0.000  0.3005E+03  0.0000E+00  0.1000E+01 189.611  1.0000  5.6452  0.7222E-04
     54.550    -67.510     0.000  0.3005E+03  0.0000E+00  0.1000E+01 191.965  1.0000  5.6452  0.2314E-04
     56.640   -116.700     0.000  0.3005E+03  0.0000E+00  0.1000E+01 192.818  1.0000  5.6452  0.2126E-05
     57.760     99.750     0.000  0.3005E+03  0.0000E+00  0.1000E+01 192.570  1.0000  5.6452  0.9445E-05
     58.560   -157.600     0.000  0.3005E+03  0.0000E+00  0.1000E+01 192.895  1.0000  5.6452  0.8302E-07
     60.750    137.800     0.000  0.3005E+03  0.0000E+00  0.1000E+01 192.894  1.0000  5.6452  0.9705E-07
     60.790   -139.500     0.000  0.3005E+03  0.0000E+00  0.1000E+01 192.891  1.0000  5.6452  0.2040E-06
     62.090    156.800     0.000  0.3005E+03  0.0000E+00  0.1000E+01 192.896  1.0000  5.6452  0.2179E-07
     73.420    118.100     0.000  0.3005E+03  0.0000E+00  0.1000E+01 192.880  1.0000  5.6452  0.4857E-06
     78.120    200.000     0.000  0.3005E+03  0.0000E+00  0.1000E+01 192.896  1.0000  5.6452  0.2342E-09
     78.510    173.400     0.000  0.3005E+03  0.0000E+00  0.1000E+01 192.896  1.0000  5.6452  0.7639E-09
     80.460   -176.900     0.000  0.3005E+03  0.0000E+00  0.1000E+01 192.896  1.0000  5.6452  0.5125E-09
     81.190     75.340     0.000  0.3005E+03  0.0000E+00  0.1000E+01 192.750  1.0000  5.6452  0.3682E-05
     86.230   -118.600     0.000  0.3005E+03  0.0000E+00  0.1000E+01 192.895  1.0000  5.6452  0.2901E-07
     86.810    -23.800     0.000  0.3005E+03  0.0000E+00  0.1000E+01 192.497  1.0000  5.6452  0.9953E-05
     86.880     14.580     0.000  0.3005E+03  0.0000E+00  0.1000E+01 192.514  1.0000  5.6452  0.9304E-05
     87.500   -200.000     0.000  0.3005E+03  0.0000E+00  0.1000E+01 192.896  1.0000  5.6452  0.2147E-09
     88.500     45.740     0.000  0.3005E+03  0.0000E+00  0.1000E+01 192.701  1.0000  5.6452  0.4762E-05
     89.760    -84.980     0.000  0.3005E+03  0.0000E+00  0.1000E+01 192.871  1.0000  5.6452  0.6491E-06
     90.960    137.300     0.000  0.3005E+03  0.0000E+00  0.1000E+01 192.895  1.0000  5.6452  0.1015E-07
     94.660    -54.500     0.000  0.3005E+03  0.0000E+00  0.1000E+01 192.832  1.0000  5.6452  0.1654E-05
     98.480     99.970     0.000  0.3005E+03  0.0000E+00  0.1000E+01 192.890  1.0000  5.6452  0.1556E-06
    101.900   -145.000     0.000  0.3005E+03  0.0000E+00  0.1000E+01 192.896  1.0000  5.6452  0.7778E-09
    107.500    154.400     0.000  0.3005E+03  0.0000E+00  0.1000E+01 192.896  1.0000  5.6452  0.1543E-09
    108.400    180.000     0.000  0.3005E+03  0.0000E+00  0.1000E+01 192.896  1.0000  5.6452  0.9186E-10
    108.400    200.000     0.000  0.3005E+03  0.0000E+00  0.1000E+01 192.896  1.0000  5.6452  0.8969E-10
    115.600   -108.500     0.000  0.3005E+03  0.0000E+00  0.1000E+01 192.895  1.0000  5.6452  0.1357E-07
    116.200     66.610     0.000  0.3005E+03  0.0000E+00  0.1000E+01 192.890  1.0000  5.6452  0.1470E-06
    117.600     -0.840     0.000  0.3005E+03  0.0000E+00  0.1000E+01 192.880  1.0000  5.6452  0.4202E-06
    122.300    125.000     0.000  0.3005E+03  0.0000E+00  0.1000E+01 192.896  1.0000  5.6452  0.1998E-08
    123.400   -168.100     0.000  0.3005E+03  0.0000E+00  0.1000E+01 192.896  1.0000  5.6452  0.9100E-10
    129.300    -34.330     0.000  0.3005E+03  0.0000E+00  0.1000E+01 192.891  1.0000  5.6452  0.1301E-06
    130.100     94.610     0.000  0.3005E+03  0.0000E+00  0.1000E+01 192.896  1.0000  5.6452  0.3859E-08
    130.100     34.910     0.000  0.3005E+03  0.0000E+00  0.1000E+01 192.891  1.0000  5.6452  0.1167E-06
    131.300    200.000     0.000  0.3005E+03  0.0000E+00  0.1000E+01 192.896  1.0000  5.6452  0.8933E-10
    137.200    156.400     0.000  0.3005E+03  0.0000E+00  0.1000E+01 192.896  1.0000  5.6452  0.1059E-09
    137.500   -200.000     0.000  0.3005E+03  0.0000E+00  0.1000E+01 192.896  1.0000  5.6452  0.8930E-10
    139.500    -75.310     0.000  0.3005E+03  0.0000E+00  0.1000E+01 192.895  1.0000  5.6452  0.1505E-07
    144.200   -124.600     0.000  0.3005E+03  0.0000E+00  0.1000E+01 192.896  1.0000  5.6452  0.2558E-09
    155.700    114.500     0.000  0.3005E+03  0.0000E+00  0.1000E+01 192.896  1.0000  5.6452  0.1318E-09
    156.400      2.809     0.000  0.3005E+03  0.0000E+00  0.1000E+01 192.896  1.0000  5.6452  0.5156E-08
    157.000     71.550     0.000  0.3005E+03  0.0000E+00  0.1000E+01 192.896  1.0000  5.6452  0.1527E-08
    162.300    165.100     0.000  0.3005E+03  0.0000E+00  0.1000E+01 192.896  1.0000  5.6452  0.8924E-10
    164.000   -158.800     0.000  0.3005E+03  0.0000E+00  0.1000E+01 192.896  1.0000  5.6452  0.9073E-10
    166.900    -41.290     0.000  0.3005E+03  0.0000E+00  0.1000E+01 192.896  1.0000  5.6452  0.1358E-08
    172.900     40.890     0.000  0.3005E+03  0.0000E+00  0.1000E+01 192.896  1.0000  5.6452  0.9846E-09
    180.600    138.900     0.000  0.3005E+03  0.0000E+00  0.1000E+01 192.896  1.0000  5.6452  0.8973E-10
    181.900    -98.140     0.000  0.3005E+03  0.0000E+00  0.1000E+01 192.896  1.0000  5.6452  0.2002E-09
    200.000   -200.000     0.000  0.3005E+03  0.0000E+00  0.1000E+01 192.896  1.0000  5.6452  0.8924E-10
    200.000   -158.800     0.000  0.3005E+03  0.0000E+00  0.1000E+01 192.896  1.0000  5.6452  0.8975E-10
    200.000    -98.140     0.000  0.3005E+03  0.0000E+00  0.1000E+01 192.896  1.0000  5.6452  0.8931E-10
    200.000    -41.290     0.000  0.3005E+03  0.0000E+00  0.1000E+01 192.896  1.0000  5.6452  0.9731E-10
    200.000      0.000     0.000  0.3005E+03  0.0000E+00  0.1000E+01 192.896  1.0000  5.6452  0.1261E-09
    200.000     40.890     0.000  0.3005E+03  0.0000E+00  0.1000E+01 192.896  1.0000  5.6452  0.9467E-10
    200.000    100.000     0.000  0.3005E+03  0.0000E+00  0.1000E+01 192.896  1.0000  5.6452  0.1022E-09
    200.000    138.900     0.000  0.3005E+03  0.0000E+00  0.1000E+01 192.896  1.0000  5.6452  0.8936E-10
    200.000    200.000     0.000  0.3005E+03  0.0000E+00  0.1000E+01 192.896  1.0000  5.6452  0.8924E-10
     -0.000   -200.000   200.000  0.3005E+03  0.0000E+00  0.1000E+01 187.187  1.0000  5.6452  0.8982E-10
     -0.000   -153.500   200.000  0.3005E+03  0.0000E+00  0.1000E+01 187.190  1.0000  5.6452  0.8987E-10
     -0.000    -55.500   200.000  0.3005E+03  0.0000E+00  0.1000E+01 187.195  1.0000  5.6452  0.9462E-10
     -0.000      0.000   200.000  0.3005E+03  0.0000E+00  0.1000E+01 187.193  1.0000  5.6452  0.9093E-10
     -0.000     50.820   200.000  0.3005E+03  0.0000E+00  0.1000E+01 187.194  1.0000  5.6452  0.9468E-10
     -0.000    156.700   200.000  0.3005E+03  0.0000E+00  0.1000E+01 187.191  1.0000  5.6452  0.8985E-10
     -0.000    200.000   200.000  0.3005E+03  0.0000E+00  0.1000E+01 187.187  1.0000  5.6452  0.8982E-10
     -0.000   -106.900   200.000  0.3005E+03  0.0000E+00  0.1000E+01 187.180  1.0000  5.6452  0.8987E-10
     -0.000    105.900   200.000  0.3005E+03  0.0000E+00  0.1000E+01 187.180  1.0000  5.6452  0.8986E-10
     -0.000   -106.900   181.500  0.3005E+03  0.0000E+00  0.1000E+01 187.719  1.0000  5.6452  0.9986E-10
     -0.000    105.900   179.900  0.3005E+03  0.0000E+00  0.1000E+01 187.760  1.0000  5.6452  0.9576E-10
     -0.000    -55.500   168.100  0.3005E+03  0.0000E+00  0.1000E+01 188.116  1.0000  5.6452  0.1108E-08
     -0.000     50.820   167.300  0.3005E+03  0.0000E+00  0.1000E+01 188.136  1.0000  5.6452  0.8699E-09
     -0.000    -10.070   165.200  0.3005E+03  0.0000E+00  0.1000E+01 188.193  1.0000  5.6452  0.2756E-09
     -0.000   -153.500   158.600  0.3005E+03  0.0000E+00  0.1000E+01 188.355  1.0000  5.6452  0.9227E-10
     -0.000    156.700   153.200  0.3005E+03  0.0000E+00  0.1000E+01 188.517  1.0000  5.6452  0.9276E-10
     -0.000    -98.240   147.200  0.3005E+03  0.0000E+00  0.1000E+01 188.693  1.0000  5.6452  0.1101E-08
     -0.000   -200.000   145.000  0.3005E+03  0.0000E+00  0.1000E+01 188.740  1.0000  5.6452  0.8972E-10
     -0.000    200.000   145.000  0.3005E+03  0.0000E+00  0.1000E+01 188.749  1.0000  5.6452  0.8989E-10
     -0.000    107.000   144.700  0.3005E+03  0.0000E+00  0.1000E+01 188.779  1.0000  5.6452  0.5379E-09
     -0.000      4.147   141.100  0.3005E+03  0.0000E+00  0.1000E+01 188.897  1.0000  5.6452  0.1359E-07
     -0.000    -47.950   131.100  0.3005E+03  0.0000E+00  0.1000E+01 189.182  1.0000  5.6452  0.9933E-07
     -0.000     72.260   128.800  0.3005E+03  0.0000E+00  0.1000E+01 189.244  1.0000  5.6452  0.2420E-07
     -0.000     35.700   124.900  0.3005E+03  0.0000E+00  0.1000E+01 189.370  1.0000  5.6452  0.1071E-06
     -0.000   -132.000   122.500  0.3005E+03  0.0000E+00  0.1000E+01 189.387  1.0000  5.6452  0.1022E-08
     -0.000   -169.800   113.100  0.3005E+03  0.0000E+00  0.1000E+01 189.631  1.0000  5.6452  0.1029E-09
     -0.000     -6.002   112.300  0.3005E+03  0.0000E+00  0.1000E+01 189.726  1.0000  5.6452  0.5924E-06
     -0.000    -91.810   111.000  0.3005E+03  0.0000E+00  0.1000E+01 189.748  1.0000  5.6452  0.7682E-07
     -0.000    137.600   108.500  0.3005E+03  0.0000E+00  0.1000E+01 189.784  1.0000  5.6452  0.2072E-08
     -0.000    170.800   103.800  0.3005E+03  0.0000E+00  0.1000E+01 189.912  1.0000  5.6452  0.2561E-09
     -0.000    101.100   102.100  0.3005E+03  0.0000E+00  0.1000E+01 189.991  1.0000  5.6452  0.9797E-07
     -0.000   -200.000   101.100  0.3005E+03  0.0000E+00  0.1000E+01 189.992  1.0000  5.6452  0.1443E-09
     -0.000    200.000   101.100  0.3005E+03  0.0000E+00  0.1000E+01 190.001  1.0000  5.6452  0.2582E-09
     -0.000     63.390    93.460  0.3005E+03  0.0000E+00  0.1000E+01 190.229  1.0000  5.6452  0.1586E-05
     -0.000     27.420    91.450  0.3005E+03  0.0000E+00  0.1000E+01 190.219  1.0000  5.6452  0.3907E-05
     -0.000    -68.080    87.960  0.3005E+03  0.0000E+00  0.1000E+01 190.344  1.0000  5.6452  0.2382E-05
     -0.000   -119.700    86.740  0.3005E+03  0.0000E+00  0.1000E+01 190.399  1.0000  5.6452  0.1486E-06
     -0.000    -35.100    85.600  0.3005E+03  0.0000E+00  0.1000E+01 190.212  1.0000  5.6452  0.7327E-05
     -0.000   -147.200    84.770  0.3005E+03  0.0000E+00  0.1000E+01 190.446  1.0000  5.6452  0.5856E-08
     -0.000     -3.573    80.280  0.3005E+03  0.0000E+00  0.1000E+01 190.089  1.0000  5.6452  0.1589E-04
     -0.000    123.800    67.520  0.3005E+03  0.0000E+00  0.1000E+01 190.921  1.0000  5.6452  0.3564E-06
     -0.000    -98.480    66.990  0.3005E+03  0.0000E+00  0.1000E+01 190.802  1.0000  5.6452  0.4460E-05
     -0.000     90.590    62.790  0.3005E+03  0.0000E+00  0.1000E+01 190.833  1.0000  5.6452  0.7638E-05
     -0.000    157.100    58.520  0.3005E+03  0.0000E+00  0.1000E+01 191.161  1.0000  5.6452  0.8228E-07
     -0.000     42.210    58.040  0.3005E+03  0.0000E+00  0.1000E+01 189.520  1.0000  5.6452  0.4422E-04
     -0.000   -200.000    57.230  0.3005E+03  0.0000E+00  0.1000E+01 191.194  1.0000  5.6452  0.1619E-07
     -0.000    200.000    57.230  0.3005E+03  0.0000E+00  0.1000E+01 191.200  1.0000  5.6452  0.4780E-07
     -0.000     14.170    56.680  0.3005E+03  0.0000E+00  0.1000E+01 187.598  1.0000  5.6452  0.8303E-04
     -0.000   -168.100    55.580  0.3005E+03  0.0000E+00  0.1000E+01 191.237  1.0000  5.6452  0.5438E-07
     -0.000    -55.140    54.620  0.3005E+03  0.0000E+00  0.1000E+01 188.915  1.0000  5.6452  0.5641E-04
     -0.000     64.950    53.600  0.3005E+03  0.0000E+00  0.1000E+01 189.752  1.0000  5.6452  0.3892E-04
     -0.000    -11.800    48.070  0.3005E+03  0.0000E+00  0.1000E+01 183.112  1.0000  5.6452  0.1776E-03
     -0.000   -133.700    46.520  0.3005E+03  0.0000E+00  0.1000E+01 191.436  1.0000  5.6452  0.1639E-05
     -0.000    -79.970    44.690  0.3005E+03  0.0000E+00  0.1000E+01 188.156  1.0000  5.6452  0.7931E-04
     -0.000    -33.520    38.720  0.3005E+03  0.0000E+00  0.1000E+01 177.772  1.0000  5.6452  0.2661E-03
     -0.000    113.100    38.540  0.3005E+03  0.0000E+00  0.1000E+01 191.136  1.0000  5.6452  0.2327E-04
     -0.000   -105.900    36.650  0.3005E+03  0.0000E+00  0.1000E+01 190.230  1.0000  5.6452  0.3653E-04
     -0.000     32.020    35.840  0.3005E+03  0.0000E+00  0.1000E+01 176.871  1.0000  5.6452  0.3136E-03
     -0.000    169.400    30.120  0.3005E+03  0.0000E+00  0.1000E+01 191.932  1.0000  5.6452  0.9992E-05
     -0.000     76.750    30.120  0.3005E+03  0.0000E+00  0.1000E+01 178.941  1.0000  5.6452  0.2749E-03
     -0.000    134.300    29.200  0.3005E+03  0.0000E+00  0.1000E+01 191.688  1.0000  5.6452  0.2338E-04
     -0.000     55.160    28.710  0.3005E+03  0.0000E+00  0.1000E+01 170.487  1.0000  5.6452  0.4110E-03
     -0.000     97.180    28.040  0.3005E+03  0.0000E+00  0.1000E+01 186.564  1.0000  5.6452  0.1638E-03
     -0.000   -160.100    27.950  0.3005E+03  0.0000E+00  0.1000E+01 191.947  1.0000  5.6452  0.6261E-05
     -0.000   -181.200    27.540  0.3005E+03  0.0000E+00  0.1000E+01 192.012  1.0000  5.6452  0.3742E-05
     -0.000   -200.000    24.410  0.3005E+03  0.0000E+00  0.1000E+01 192.143  1.0000  5.6452  0.4295E-05
     -0.000    200.000    24.410  0.3005E+03  0.0000E+00  0.1000E+01 192.110  1.0000  5.6452  0.6817E-05
     -0.000      7.901    24.230  0.3005E+03  0.0000E+00  0.1000E+01 152.788  1.0000  5.6452  0.5810E-03
     -0.000    -57.540    22.360  0.3005E+03  0.0000E+00  0.1000E+01 164.058  1.0000  5.6452  0.4780E-03
     -0.000   -121.300    18.140  0.3005E+03  0.0000E+00  0.1000E+01 191.797  1.0000  5.6452  0.6282E-04
     -0.000    -11.700    16.280  0.3005E+03  0.0000E+00  0.1000E+01 131.696  1.0000  5.6452  0.8047E-03
     -0.000     36.610    14.170  0.3005E+03  0.0000E+00  0.1000E+01 130.066  1.0000  5.6452  0.8944E-03
     -0.000   -146.600    12.430  0.3005E+03  0.0000E+00  0.1000E+01 192.185  1.0000  5.6452  0.6833E-04
      0.000   -150.500   -13.220  0.3005E+03  0.0000E+00  0.1000E+01 142.023  1.0000  5.6452  0.3135E-02
      0.000    182.800   -16.500  0.3005E+03  0.0000E+00  0.1000E+01 164.166  1.0000  5.6452  0.2453E-02
      0.000    -84.200   -18.230  0.3005E+03  0.0000E+00  0.1000E+01  95.468  1.0000  5.6452  0.2151E-02
      0.000     93.210   -20.750  0.3005E+03  0.0000E+00  0.1000E+01 102.863  1.0000  5.6452  0.2683E-02
      0.000   -200.000   -25.000  0.3005E+03  0.0000E+00  0.1000E+01 170.104  1.0000  5.6452  0.2193E-02
      0.000    -44.120   -25.500  0.3005E+03  0.0000E+00  0.1000E+01  84.461  1.0000  5.6452  0.9567E-03
      0.000    200.000   -28.610  0.3005E+03  0.0000E+00  0.1000E+01 168.964  1.0000  5.6452  0.2232E-02
      0.000     27.820   -28.850  0.3005E+03  0.0000E+00  0.1000E+01  82.577  1.0000  5.6452  0.6423E-03
      0.000     70.720   -29.070  0.3005E+03  0.0000E+00  0.1000E+01  92.249  1.0000  5.6452  0.1868E-02
      0.000   -131.100   -31.720  0.3005E+03  0.0000E+00  0.1000E+01 135.796  1.0000  5.6452  0.3280E-02
      0.000      6.350   -32.170  0.3004E+03  0.0000E+00  0.1000E+01  82.179  1.0000  5.6452  0.5516E-03
      0.000   -107.200   -32.390  0.3005E+03  0.0000E+00  0.1000E+01 116.075  1.0000  5.6452  0.3094E-02
      0.000    117.900   -32.870  0.3005E+03  0.0000E+00  0.1000E+01 125.842  1.0000  5.6452  0.3257E-02
      0.000    167.100   -33.460  0.3005E+03  0.0000E+00  0.1000E+01 162.132  1.0000  5.6452  0.2538E-02