
          ---- Aqueous concentrations vs. grid blocks at specified times ----

   Unit: 
    - Aqueous species: Total concencentrations in mol/L     
    - Component in dry nodes in mol/L medium

VARIABLES =X,        Y,       Z,  P(bar)  ,      Sg,       Sl  ,     T(C)  ,  aH2O,    pH     ,t_tracer   ,
ZONE T= "0.100000E+00 d"  F=POINT
   -200.000   -200.000     0.000  0.3004E+03  0.0000E+00  0.1000E+01 184.500  1.0000  5.6452  0.4525E-03
   -200.000   -125.000     0.000  0.3004E+03  0.0000E+00  0.1000E+01 184.500  1.0000  5.6452  0.3717E-02
   -200.000    -90.440     0.000  0.3004E+03  0.0000E+00  0.1000E+01 184.500  1.0000  5.6452  0.4343E-02
   -200.000    -50.000     0.000  0.3004E+03  0.0000E+00  0.1000E+01 184.500  1.0000  5.6452  0.3924E-02
   -200.000    -37.060     0.000  0.3004E+03  0.0000E+00  0.1000E+01 184.500  1.0000  5.6452  0.3320E-02
   -200.000      0.000     0.000  0.3004E+03  0.0000E+00  0.1000E+01 184.500  1.0000  5.6452  0.3279E-02
   -200.000     21.280     0.000  0.3004E+03  0.0000E+00  0.1000E+01 184.500  1.0000  5.6452  0.3890E-02
   -200.000     50.000     0.000  0.3004E+03  0.0000E+00  0.1000E+01 184.500  1.0000  5.6452  0.3161E-02
   -200.000     66.820     0.000  0.3004E+03  0.0000E+00  0.1000E+01 184.500  1.0000  5.6452  0.4160E-02
   -200.000    100.700     0.000  0.3004E+03  0.0000E+00  0.1000E+01 184.500  1.0000  5.6452  0.4469E-02
   -200.000    125.000     0.000  0.3004E+03  0.0000E+00  0.1000E+01 184.500  1.0000  5.6452  0.4042E-02
   -200.000    171.500     0.000  0.3004E+03  0.0000E+00  0.1000E+01 184.500  1.0000  5.6452  0.2043E-02
   -200.000    200.000     0.000  0.3004E+03  0.0000E+00  0.1000E+01 184.500  1.0000  5.6452  0.7440E-03
   -187.600     21.280     0.000  0.3004E+03  0.0000E+00  0.1000E+01 184.500  1.0000  5.6452  0.2131E-02
   -186.000    -37.060     0.000  0.3004E+03  0.0000E+00  0.1000E+01 184.500  1.0000  5.6452  0.2357E-02
   -183.000    -90.440     0.000  0.3004E+03  0.0000E+00  0.1000E+01 184.500  1.0000  5.6452  0.4021E-02
   -180.400    100.700     0.000  0.3004E+03  0.0000E+00  0.1000E+01 184.500  1.0000  5.6452  0.4170E-02
   -179.100    -63.140     0.000  0.3004E+03  0.0000E+00  0.1000E+01 184.500  1.0000  5.6452  0.2829E-02
   -178.400    -21.660     0.000  0.3004E+03  0.0000E+00  0.1000E+01 184.500  1.0000  5.6452  0.1103E-02
   -177.800     35.260     0.000  0.3004E+03  0.0000E+00  0.1000E+01 184.500  1.0000  5.6452  0.1619E-02
   -177.500     66.820     0.000  0.3004E+03  0.0000E+00  0.1000E+01 184.500  1.0000  5.6452  0.2787E-02
   -175.500      1.732     0.000  0.3005E+03  0.0000E+00  0.1000E+01 184.499  1.0000  5.6452  0.6933E-03
   -173.200   -119.000     0.000  0.3004E+03  0.0000E+00  0.1000E+01 184.500  1.0000  5.6452  0.4546E-02
   -167.000    171.500     0.000  0.3004E+03  0.0000E+00  0.1000E+01 184.500  1.0000  5.6452  0.1821E-02
   -167.000    200.000     0.000  0.3004E+03  0.0000E+00  0.1000E+01 184.500  1.0000  5.6452  0.6823E-03
   -164.700    139.100     0.000  0.3004E+03  0.0000E+00  0.1000E+01 184.500  1.0000  5.6452  0.3358E-02
   -164.300    -49.710     0.000  0.3004E+03  0.0000E+00  0.1000E+01 184.500  1.0000  5.6452  0.7484E-03
   -164.100     47.060     0.000  0.3004E+03  0.0000E+00  0.1000E+01 184.499  1.0000  5.6452  0.8870E-03
   -162.800   -200.000     0.000  0.3004E+03  0.0000E+00  0.1000E+01 184.500  1.0000  5.6452  0.7927E-03
   -162.800   -176.700     0.000  0.3004E+03  0.0000E+00  0.1000E+01 184.500  1.0000  5.6452  0.2205E-02
   -161.300    -21.010     0.000  0.3005E+03  0.0000E+00  0.1000E+01 184.493  1.0000  5.6452  0.6954E-04
   -161.200     21.020     0.000  0.3005E+03  0.0000E+00  0.1000E+01 184.483  1.0000  5.6452  0.8107E-04
   -159.500    -82.340     0.000  0.3004E+03  0.0000E+00  0.1000E+01 184.500  1.0000  5.6452  0.2273E-02
   -157.500   -147.200     0.000  0.3004E+03  0.0000E+00  0.1000E+01 184.500  1.0000  5.6452  0.3874E-02
   -155.400     95.360     0.000  0.3004E+03  0.0000E+00  0.1000E+01 184.500  1.0000  5.6452  0.2792E-02
   -155.000     -0.383     0.000  0.3005E+03  0.0000E+00  0.1000E+01 184.440  1.0000  5.6452  0.5149E-05
   -154.300     68.540     0.000  0.3004E+03  0.0000E+00  0.1000E+01 184.500  1.0000  5.6452  0.1163E-02
   -150.500   -113.200     0.000  0.3004E+03  0.0000E+00  0.1000E+01 184.500  1.0000  5.6452  0.3589E-02
   -150.100    -41.880     0.000  0.3004E+03  0.0000E+00  0.1000E+01 184.491  1.0000  5.6452  0.7168E-04
   -148.400     42.710     0.000  0.3004E+03  0.0000E+00  0.1000E+01 184.478  1.0000  5.6452  0.5606E-04
   -144.600    126.800     0.000  0.3004E+03  0.0000E+00  0.1000E+01 184.500  1.0000  5.6452  0.4211E-02
   -143.700    -68.140     0.000  0.3004E+03  0.0000E+00  0.1000E+01 184.499  1.0000  5.6452  0.4138E-03
   -142.900    -23.060     0.000  0.3005E+03  0.0000E+00  0.1000E+01 184.293  1.0000  5.6452  0.2749E-06
   -141.100     20.750     0.000  0.3005E+03  0.0000E+00  0.1000E+01 183.997  1.0000  5.6452  0.4164E-06
   -139.400     -1.308     0.000  0.3005E+03  0.0000E+00  0.1000E+01 183.575  1.0000  5.6452  0.6817E-08
   -136.500     61.520     0.000  0.3004E+03  0.0000E+00  0.1000E+01 184.492  1.0000  5.6452  0.4493E-04
   -134.600    -95.960     0.000  0.3004E+03  0.0000E+00  0.1000E+01 184.500  1.0000  5.6452  0.1708E-02
   -134.300    -45.670     0.000  0.3004E+03  0.0000E+00  0.1000E+01 184.456  1.0000  5.6452  0.1282E-05
   -133.500     84.490     0.000  0.3004E+03  0.0000E+00  0.1000E+01 184.500  1.0000  5.6452  0.6832E-03
   -129.500     44.110     0.000  0.3004E+03  0.0000E+00  0.1000E+01 184.348  1.0000  5.6452  0.4565E-06
   -128.100    -14.030     0.000  0.3005E+03  0.0000E+00  0.1000E+01 181.842  1.0000  5.6452  0.1147E-09
   -127.800   -139.900     0.000  0.3004E+03  0.0000E+00  0.1000E+01 184.500  1.0000  5.6452  0.3994E-02
   -125.700    110.200     0.000  0.3004E+03  0.0000E+00  0.1000E+01 184.500  1.0000  5.6452  0.2308E-02
   -125.000    200.000     0.000  0.3004E+03  0.0000E+00  0.1000E+01 184.500  1.0000  5.6452  0.1020E-02
   -124.700      6.564     0.000  0.3005E+03  0.0000E+00  0.1000E+01 175.032  1.0000  5.6452  0.9126E-10
   -124.600    164.400     0.000  0.3004E+03  0.0000E+00  0.1000E+01 184.500  1.0000  5.6452  0.2655E-02
   -123.400    -36.070     0.000  0.3005E+03  0.0000E+00  0.1000E+01 183.904  1.0000  5.6452  0.3189E-07
   -122.700     26.740     0.000  0.3005E+03  0.0000E+00  0.1000E+01 182.678  1.0000  5.6452  0.9917E-10
   -122.100    -79.990     0.000  0.3004E+03  0.0000E+00  0.1000E+01 184.499  1.0000  5.6452  0.2770E-03
   -121.500   -168.100     0.000  0.3004E+03  0.0000E+00  0.1000E+01 184.500  1.0000  5.6452  0.2660E-02
   -118.900    -60.070     0.000  0.3004E+03  0.0000E+00  0.1000E+01 184.467  1.0000  5.6452  0.4484E-05
   -117.600     16.020     0.000  0.3005E+03  0.0000E+00  0.1000E+01 173.464  1.0000  5.6452  0.9120E-10
   -116.000   -120.000     0.000  0.3004E+03  0.0000E+00  0.1000E+01 184.500  1.0000  5.6452  0.2894E-02
   -115.700     68.170     0.000  0.3004E+03  0.0000E+00  0.1000E+01 184.470  1.0000  5.6452  0.4001E-04
   -114.500    -19.230     0.000  0.3005E+03  0.0000E+00  0.1000E+01 179.001  1.0000  5.6452  0.9053E-10
   -114.500     -9.829     0.000  0.3005E+03  0.0000E+00  0.1000E+01 164.089  1.0000  5.6452  0.9137E-10
   -112.100      0.793     0.000  0.3005E+03  0.0000E+00  0.1000E+01 136.444  1.0000  5.6452  0.9332E-10
   -111.100     45.660     0.000  0.3004E+03  0.0000E+00  0.1000E+01 183.842  1.0000  5.6452  0.2104E-06
   -108.600     91.580     0.000  0.3004E+03  0.0000E+00  0.1000E+01 184.499  1.0000  5.6452  0.6159E-03
   -108.300    138.100     0.000  0.3004E+03  0.0000E+00  0.1000E+01 184.500  1.0000  5.6452  0.4087E-02
   -108.100     24.640     0.000  0.3005E+03  0.0000E+00  0.1000E+01 175.507  1.0000  5.6452  0.9116E-10
   -106.900    -23.870     0.000  0.3005E+03  0.0000E+00  0.1000E+01 178.859  1.0000  5.6452  0.9016E-10
   -106.500    -98.520     0.000  0.3004E+03  0.0000E+00  0.1000E+01 184.500  1.0000  5.6452  0.8469E-03
   -106.200      9.610     0.000  0.3005E+03  0.0000E+00  0.1000E+01 146.190  1.0000  5.6452  0.9277E-10
   -105.200    -42.180     0.000  0.3004E+03  0.0000E+00  0.1000E+01 183.787  1.0000  5.6452  0.1649E-07
   -101.800    -76.550     0.000  0.3004E+03  0.0000E+00  0.1000E+01 184.496  1.0000  5.6452  0.1031E-03
   -100.000   -200.000     0.000  0.3004E+03  0.0000E+00  0.1000E+01 184.500  1.0000  5.6452  0.1906E-02
   -100.000    -10.000     0.000  0.3005E+03  0.0000E+00  0.1000E+01 124.446  1.0000  5.6452  0.9378E-10
   -100.000      0.000     0.000  0.3007E+03  0.0000E+00  0.1000E+01  89.924  1.0000  5.6452  0.9648E-10
   -100.000     10.000     0.000  0.3005E+03  0.0000E+00  0.1000E+01 136.928  1.0000  5.6452  0.9344E-10
    -99.140    -18.090     0.000  0.3005E+03  0.0000E+00  0.1000E+01 156.369  1.0000  5.6452  0.9130E-10
    -95.480    -56.250     0.000  0.3004E+03  0.0000E+00  0.1000E+01 184.410  1.0000  5.6452  0.8876E-06
    -94.260    114.500     0.000  0.3004E+03  0.0000E+00  0.1000E+01 184.500  1.0000  5.6452  0.2086E-02
    -94.200     -3.118     0.000  0.3006E+03  0.0000E+00  0.1000E+01 113.557  1.0000  5.6452  0.9437E-10
    -93.940     42.630     0.000  0.3004E+03  0.0000E+00  0.1000E+01 183.697  1.0000  5.6452  0.5263E-07
    -93.480      7.056     0.000  0.3005E+03  0.0000E+00  0.1000E+01 130.680  1.0000  5.6452  0.9331E-10
    -93.480     61.020     0.000  0.3004E+03  0.0000E+00  0.1000E+01 184.427  1.0000  5.6452  0.6172E-05
    -93.390    -12.130     0.000  0.3005E+03  0.0000E+00  0.1000E+01 149.541  1.0000  5.6452  0.9200E-10
    -93.080     76.880     0.000  0.3004E+03  0.0000E+00  0.1000E+01 184.495  1.0000  5.6452  0.3398E-04
    -92.150    -26.810     0.000  0.3005E+03  0.0000E+00  0.1000E+01 177.540  1.0000  5.6452  0.9011E-10
    -91.790    180.600     0.000  0.3004E+03  0.0000E+00  0.1000E+01 184.500  1.0000  5.6452  0.2266E-02
    -91.790    200.000     0.000  0.3004E+03  0.0000E+00  0.1000E+01 184.500  1.0000  5.6452  0.9762E-03
    -91.410     28.190     0.000  0.3005E+03  0.0000E+00  0.1000E+01 179.725  1.0000  5.6452  0.9057E-10
    -90.620   -143.800     0.000  0.3004E+03  0.0000E+00  0.1000E+01 184.500  1.0000  5.6452  0.3605E-02
    -88.520     15.480     0.000  0.3005E+03  0.0000E+00  0.1000E+01 162.084  1.0000  5.6452  0.9139E-10
    -85.130    -39.060     0.000  0.3004E+03  0.0000E+00  0.1000E+01 183.324  1.0000  5.6452  0.3455E-08
    -84.730   -115.600     0.000  0.3004E+03  0.0000E+00  0.1000E+01 184.500  1.0000  5.6452  0.1934E-02
    -83.960     -4.299     0.000  0.3005E+03  0.0000E+00  0.1000E+01 153.470  1.0000  5.6452  0.9161E-10
    -82.060      7.961     0.000  0.3005E+03  0.0000E+00  0.1000E+01 165.343  1.0000  5.6452  0.9101E-10
    -81.810   -171.100     0.000  0.3004E+03  0.0000E+00  0.1000E+01 184.500  1.0000  5.6452  0.2615E-02
    -81.650    -69.770     0.000  0.3004E+03  0.0000E+00  0.1000E+01 184.495  1.0000  5.6452  0.3346E-04
    -81.420    -16.710     0.000  0.3005E+03  0.0000E+00  0.1000E+01 174.803  1.0000  5.6452  0.9045E-10
    -81.370    -90.330     0.000  0.3004E+03  0.0000E+00  0.1000E+01 184.500  1.0000  5.6452  0.3408E-03
    -78.840     92.160     0.000  0.3004E+03  0.0000E+00  0.1000E+01 184.500  1.0000  5.6452  0.2804E-03
    -76.950     51.910     0.000  0.3004E+03  0.0000E+00  0.1000E+01 184.417  1.0000  5.6452  0.1689E-05
    -75.960     18.860     0.000  0.3004E+03  0.0000E+00  0.1000E+01 179.597  1.0000  5.6452  0.9025E-10
    -74.050     36.000     0.000  0.3004E+03  0.0000E+00  0.1000E+01 183.771  1.0000  5.6452  0.1117E-07
    -73.770      4.618     0.000  0.3005E+03  0.0000E+00  0.1000E+01 177.128  1.0000  5.6452  0.9023E-10
    -73.220    164.200     0.000  0.3004E+03  0.0000E+00  0.1000E+01 184.645  1.0000  5.6452  0.3055E-02
    -73.020    -52.600     0.000  0.3004E+03  0.0000E+00  0.1000E+01 184.371  1.0000  5.6452  0.3158E-06
    -72.670     -9.284     0.000  0.3005E+03  0.0000E+00  0.1000E+01 178.430  1.0000  5.6452  0.9014E-10
    -72.200    134.600     0.000  0.3004E+03  0.0000E+00  0.1000E+01 184.498  1.0000  5.6452  0.3609E-02
    -69.340    -30.410     0.000  0.3004E+03  0.0000E+00  0.1000E+01 183.199  1.0000  5.6452  0.1693E-08
    -67.920     72.350     0.000  0.3004E+03  0.0000E+00  0.1000E+01 184.506  1.0000  5.6452  0.2838E-04
    -65.250    108.200     0.000  0.3004E+03  0.0000E+00  0.1000E+01 184.500  1.0000  5.6452  0.1196E-02
    -61.600      0.760     0.000  0.3004E+03  0.0000E+00  0.1000E+01 182.644  1.0000  5.6452  0.8988E-10
    -60.360    -97.600     0.000  0.3004E+03  0.0000E+00  0.1000E+01 184.500  1.0000  5.6452  0.7312E-03
    -59.860     22.590     0.000  0.3004E+03  0.0000E+00  0.1000E+01 183.741  1.0000  5.6452  0.3325E-08
    -59.810    -70.230     0.000  0.3004E+03  0.0000E+00  0.1000E+01 184.490  1.0000  5.6452  0.4223E-04
    -57.550   -123.500     0.000  0.3004E+03  0.0000E+00  0.1000E+01 184.882  1.0000  5.6452  0.2457E-02
    -56.850     49.190     0.000  0.3004E+03  0.0000E+00  0.1000E+01 190.064  1.0000  5.6452  0.1366E-05
    -55.400    -44.590     0.000  0.3004E+03  0.0000E+00  0.1000E+01 184.166  1.0000  5.6452  0.2445E-06
    -54.770    -18.840     0.000  0.3004E+03  0.0000E+00  0.1000E+01 183.858  1.0000  5.6452  0.1315E-08
    -53.920   -149.400     0.000  0.3004E+03  0.0000E+00  0.1000E+01 184.507  1.0000  5.6452  0.3320E-02
    -50.000    200.000     0.000  0.3004E+03  0.0000E+00  0.1000E+01 184.493  1.0000  5.6452  0.2095E-02
    -48.920      3.073     0.000  0.3004E+03  0.0000E+00  0.1000E+01 184.151  1.0000  5.6452  0.7288E-09
    -46.930     31.990     0.000  0.3004E+03  0.0000E+00  0.1000E+01 183.782  1.0000  5.6452  0.2527E-06
    -46.700     89.890     0.000  0.3004E+03  0.0000E+00  0.1000E+01 184.508  1.0000  5.6452  0.5404E-03
    -45.950     64.020     0.000  0.3004E+03  0.0000E+00  0.1000E+01 185.030  1.0000  5.6452  0.1971E-04
    -44.670    148.900     0.000  0.3004E+03  0.0000E+00  0.1000E+01 184.517  1.0000  5.6452  0.3655E-02
    -42.420    -30.440     0.000  0.3004E+03  0.0000E+00  0.1000E+01 184.406  1.0000  5.6452  0.1169E-06
    -42.020    -76.750     0.000  0.3004E+03  0.0000E+00  0.1000E+01 184.499  1.0000  5.6452  0.1888E-03
    -41.510   -200.000     0.000  0.3004E+03  0.0000E+00  0.1000E+01 184.516  1.0000  5.6452  0.2020E-02
    -41.510   -181.700     0.000  0.3004E+03  0.0000E+00  0.1000E+01 184.500  1.0000  5.6452  0.2742E-02
    -38.120     16.520     0.000  0.3004E+03  0.0000E+00  0.1000E+01 184.412  1.0000  5.6452  0.9122E-07
    -37.730    120.700     0.000  0.3004E+03  0.0000E+00  0.1000E+01 184.500  1.0000  5.6452  0.2241E-02
    -36.670    -53.540     0.000  0.3004E+03  0.0000E+00  0.1000E+01 184.471  1.0000  5.6452  0.9138E-05
    -34.870     -6.423     0.000  0.3004E+03  0.0000E+00  0.1000E+01 184.440  1.0000  5.6452  0.1779E-07
    -32.890    -97.920     0.000  0.3004E+03  0.0000E+00  0.1000E+01 184.503  1.0000  5.6452  0.1058E-02
    -32.300     40.370     0.000  0.3004E+03  0.0000E+00  0.1000E+01 184.578  1.0000  5.6452  0.3154E-05
    -28.290    -29.060     0.000  0.3004E+03  0.0000E+00  0.1000E+01 184.487  1.0000  5.6452  0.6308E-06
    -26.830     66.720     0.000  0.3004E+03  0.0000E+00  0.1000E+01 184.548  1.0000  5.6452  0.9814E-04
    -25.270    178.200     0.000  0.3004E+03  0.0000E+00  0.1000E+01 184.500  1.0000  5.6452  0.2835E-02
    -25.270    200.000     0.000  0.3004E+03  0.0000E+00  0.1000E+01 184.500  1.0000  5.6452  0.1780E-02
    -24.980   -125.400     0.000  0.3004E+03  0.0000E+00  0.1000E+01 184.513  1.0000  5.6452  0.2920E-02
    -22.020     14.410     0.000  0.3004E+03  0.0000E+00  0.1000E+01 184.489  1.0000  5.6452  0.3333E-06
    -21.280   -152.400     0.000  0.3004E+03  0.0000E+00  0.1000E+01 184.500  1.0000  5.6452  0.3309E-02
    -20.250     93.490     0.000  0.3004E+03  0.0000E+00  0.1000E+01 184.501  1.0000  5.6452  0.1027E-02
    -19.810    -71.090     0.000  0.3004E+03  0.0000E+00  0.1000E+01 184.499  1.0000  5.6452  0.2587E-03
    -15.870    -12.460     0.000  0.3004E+03  0.0000E+00  0.1000E+01 184.495  1.0000  5.6452  0.4605E-06
    -14.770    -41.820     0.000  0.3004E+03  0.0000E+00  0.1000E+01 184.498  1.0000  5.6452  0.1280E-04
    -13.730     37.630     0.000  0.3004E+03  0.0000E+00  0.1000E+01 184.509  1.0000  5.6452  0.9072E-05
    -13.120    147.500     0.000  0.3004E+03  0.0000E+00  0.1000E+01 184.501  1.0000  5.6452  0.3423E-02
     -9.188    118.700     0.000  0.3004E+03  0.0000E+00  0.1000E+01 184.500  1.0000  5.6452  0.2661E-02
     -6.943     65.910     0.000  0.3004E+03  0.0000E+00  0.1000E+01 184.504  1.0000  5.6452  0.2771E-03
     -4.307      7.957     0.000  0.3004E+03  0.0000E+00  0.1000E+01 184.499  1.0000  5.6452  0.9644E-06
     -3.821    -96.630     0.000  0.3004E+03  0.0000E+00  0.1000E+01 184.500  1.0000  5.6452  0.1774E-02
     -0.807    -67.060     0.000  0.3004E+03  0.0000E+00  0.1000E+01 184.500  1.0000  5.6452  0.3639E-03
      0.000   -200.000     0.000  0.3004E+03  0.0000E+00  0.1000E+01 184.500  1.0000  5.6452  0.1978E-02
      1.348    -23.030     0.000  0.3003E+03  0.0000E+00  0.1000E+01 184.500  1.0000  5.6452  0.7085E-05
      3.388     35.580     0.000  0.3003E+03  0.0000E+00  0.1000E+01 184.501  1.0000  5.6452  0.2662E-04
      3.585   -170.100     0.000  0.3003E+03  0.0000E+00  0.1000E+01 184.500  1.0000  5.6452  0.2989E-02
      8.359     96.920     0.000  0.3003E+03  0.0000E+00  0.1000E+01 184.500  1.0000  5.6452  0.2080E-02
      8.883   -133.300     0.000  0.3003E+03  0.0000E+00  0.1000E+01 184.500  1.0000  5.6452  0.3488E-02
      9.864     64.090     0.000  0.3003E+03  0.0000E+00  0.1000E+01 184.501  1.0000  5.6452  0.4015E-03
     10.300    -46.930     0.000  0.3003E+03  0.0000E+00  0.1000E+01 184.500  1.0000  5.6452  0.1808E-03
     12.040     12.420     0.000  0.3003E+03  0.0000E+00  0.1000E+01 184.500  1.0000  5.6452  0.6948E-05
     14.510     -7.846     0.000  0.3003E+03  0.0000E+00  0.1000E+01 184.500  1.0000  5.6452  0.8668E-05
     16.070    135.900     0.000  0.3003E+03  0.0000E+00  0.1000E+01 184.500  1.0000  5.6452  0.3522E-02
     18.100    168.000     0.000  0.3003E+03  0.0000E+00  0.1000E+01 184.500  1.0000  5.6452  0.2923E-02
     20.040    -78.480     0.000  0.3003E+03  0.0000E+00  0.1000E+01 184.500  1.0000  5.6452  0.1222E-02
     21.620     27.370     0.000  0.3003E+03  0.0000E+00  0.1000E+01 184.500  1.0000  5.6452  0.2976E-04
     23.080    -29.850     0.000  0.3003E+03  0.0000E+00  0.1000E+01 184.500  1.0000  5.6452  0.1005E-03
     23.530   -107.300     0.000  0.3003E+03  0.0000E+00  0.1000E+01 184.500  1.0000  5.6452  0.3018E-02
     24.450     47.680     0.000  0.3003E+03  0.0000E+00  0.1000E+01 184.500  1.0000  5.6452  0.3587E-03
     25.000    200.000     0.000  0.3003E+03  0.0000E+00  0.1000E+01 184.500  1.0000  5.6452  0.1851E-02
     26.630     75.540     0.000  0.3003E+03  0.0000E+00  0.1000E+01 184.500  1.0000  5.6452  0.1358E-02
     28.410    -53.430     0.000  0.3003E+03  0.0000E+00  0.1000E+01 184.500  1.0000  5.6452  0.5535E-03
     28.990      9.495     0.000  0.3003E+03  0.0000E+00  0.1000E+01 184.500  1.0000  5.6452  0.1832E-04
     32.820     -8.758     0.000  0.3003E+03  0.0000E+00  0.1000E+01 184.500  1.0000  5.6452  0.3587E-04
     33.620    120.900     0.000  0.3003E+03  0.0000E+00  0.1000E+01 184.500  1.0000  5.6452  0.3616E-02
     37.820     30.860     0.000  0.3003E+03  0.0000E+00  0.1000E+01 184.500  1.0000  5.6452  0.1756E-03
     38.170     98.710     0.000  0.3003E+03  0.0000E+00  0.1000E+01 184.500  1.0000  5.6452  0.3040E-02
     39.290   -156.600     0.000  0.3003E+03  0.0000E+00  0.1000E+01 184.500  1.0000  5.6452  0.3170E-02
     40.920   -200.000     0.000  0.3003E+03  0.0000E+00  0.1000E+01 184.500  1.0000  5.6452  0.1515E-02
     40.920   -183.900     0.000  0.3003E+03  0.0000E+00  0.1000E+01 184.500  1.0000  5.6452  0.2303E-02
     41.800    -25.170     0.000  0.3003E+03  0.0000E+00  0.1000E+01 184.500  1.0000  5.6452  0.1658E-03
     43.530     56.420     0.000  0.3003E+03  0.0000E+00  0.1000E+01 184.500  1.0000  5.6452  0.1075E-02
     44.150    -90.900     0.000  0.3003E+03  0.0000E+00  0.1000E+01 184.500  1.0000  5.6452  0.2735E-02
     44.250    -67.850     0.000  0.3003E+03  0.0000E+00  0.1000E+01 184.500  1.0000  5.6452  0.1605E-02
     44.470    -45.620     0.000  0.3003E+03  0.0000E+00  0.1000E+01 184.500  1.0000  5.6452  0.7748E-03
     45.550   -132.800     0.000  0.3003E+03  0.0000E+00  0.1000E+01 184.500  1.0000  5.6452  0.3544E-02
     46.820     10.120     0.000  0.3003E+03  0.0000E+00  0.1000E+01 184.500  1.0000  5.6452  0.7180E-04
     47.630     78.650     0.000  0.3003E+03  0.0000E+00  0.1000E+01 184.500  1.0000  5.6452  0.2397E-02
     48.890    -11.130     0.000  0.3003E+03  0.0000E+00  0.1000E+01 184.500  1.0000  5.6452  0.9577E-04
     51.250     41.340     0.000  0.3003E+03  0.0000E+00  0.1000E+01 184.500  1.0000  5.6452  0.7615E-03
     52.170    150.100     0.000  0.3003E+03  0.0000E+00  0.1000E+01 184.500  1.0000  5.6452  0.3282E-02
     52.750   -111.700     0.000  0.3003E+03  0.0000E+00  0.1000E+01 184.500  1.0000  5.6452  0.3621E-02
     56.830    -29.350     0.000  0.3003E+03  0.0000E+00  0.1000E+01 184.500  1.0000  5.6452  0.4524E-03
     57.330    179.700     0.000  0.3003E+03  0.0000E+00  0.1000E+01 184.500  1.0000  5.6452  0.1966E-02
     57.330    200.000     0.000  0.3003E+03  0.0000E+00  0.1000E+01 184.500  1.0000  5.6452  0.1374E-02
     58.620     27.700     0.000  0.3003E+03  0.0000E+00  0.1000E+01 184.500  1.0000  5.6452  0.5344E-03
     59.970    120.800     0.000  0.3003E+03  0.0000E+00  0.1000E+01 184.500  1.0000  5.6452  0.3774E-02
     60.240     -2.052     0.000  0.3003E+03  0.0000E+00  0.1000E+01 184.500  1.0000  5.6452  0.1014E-03
     62.780    -59.450     0.000  0.3003E+03  0.0000E+00  0.1000E+01 184.500  1.0000  5.6452  0.1927E-02
     63.480     93.530     0.000  0.3003E+03  0.0000E+00  0.1000E+01 184.500  1.0000  5.6452  0.3553E-02
     64.380    -16.850     0.000  0.3003E+03  0.0000E+00  0.1000E+01 184.500  1.0000  5.6452  0.3115E-03
     64.740     12.830     0.000  0.3003E+03  0.0000E+00  0.1000E+01 184.500  1.0000  5.6452  0.2909E-03
     65.100     50.300     0.000  0.3003E+03  0.0000E+00  0.1000E+01 184.500  1.0000  5.6452  0.1682E-02
     66.720    -79.190     0.000  0.3003E+03  0.0000E+00  0.1000E+01 184.500  1.0000  5.6452  0.3052E-02
     66.910     69.510     0.000  0.3003E+03  0.0000E+00  0.1000E+01 184.500  1.0000  5.6452  0.2870E-02
     67.110    -43.540     0.000  0.3003E+03  0.0000E+00  0.1000E+01 184.500  1.0000  5.6452  0.1538E-02
     71.590   -100.400     0.000  0.3003E+03  0.0000E+00  0.1000E+01 184.500  1.0000  5.6452  0.3736E-02
     72.470      0.526     0.000  0.3002E+03  0.0000E+00  0.1000E+01 184.500  1.0000  5.6452  0.1858E-03
     74.210    -29.250     0.000  0.3003E+03  0.0000E+00  0.1000E+01 184.500  1.0000  5.6452  0.1118E-02
     75.130     22.430     0.000  0.3003E+03  0.0000E+00  0.1000E+01 184.500  1.0000  5.6452  0.8748E-03
     75.170   -200.000     0.000  0.3003E+03  0.0000E+00  0.1000E+01 184.500  1.0000  5.6452  0.1401E-02
     75.170   -174.300     0.000  0.3003E+03  0.0000E+00  0.1000E+01 184.500  1.0000  5.6452  0.2069E-02
     76.300     37.530     0.000  0.3003E+03  0.0000E+00  0.1000E+01 184.500  1.0000  5.6452  0.1712E-02
     77.150     -9.148     0.000  0.3002E+03  0.0000E+00  0.1000E+01 184.500  1.0000  5.6452  0.2983E-03
     77.600   -150.300     0.000  0.3003E+03  0.0000E+00  0.1000E+01 184.500  1.0000  5.6452  0.2763E-02
     79.500   -126.900     0.000  0.3003E+03  0.0000E+00  0.1000E+01 184.500  1.0000  5.6452  0.3299E-02
     80.910    -17.270     0.000  0.3002E+03  0.0000E+00  0.1000E+01 184.500  1.0000  5.6452  0.9577E-03
     81.290    -68.840     0.000  0.3003E+03  0.0000E+00  0.1000E+01 184.500  1.0000  5.6452  0.3147E-02
     83.810      7.499     0.000  0.3002E+03  0.0000E+00  0.1000E+01 184.500  1.0000  5.6452  0.5852E-03
     83.940    -51.150     0.000  0.3003E+03  0.0000E+00  0.1000E+01 184.500  1.0000  5.6452  0.2655E-02
     84.860     51.990     0.000  0.3003E+03  0.0000E+00  0.1000E+01 184.500  1.0000  5.6452  0.3007E-02
     84.960     86.740     0.000  0.3003E+03  0.0000E+00  0.1000E+01 184.500  1.0000  5.6452  0.3863E-02
     85.200    110.100     0.000  0.3003E+03  0.0000E+00  0.1000E+01 184.500  1.0000  5.6452  0.3734E-02
     85.730     -1.418     0.000  0.3002E+03  0.0000E+00  0.1000E+01 184.500  1.0000  5.6452  0.4023E-03
     85.800     20.540     0.000  0.3002E+03  0.0000E+00  0.1000E+01 184.500  1.0000  5.6452  0.1205E-02
     86.180    137.000     0.000  0.3003E+03  0.0000E+00  0.1000E+01 184.500  1.0000  5.6452  0.3136E-02
     88.070    -35.250     0.000  0.3003E+03  0.0000E+00  0.1000E+01 184.500  1.0000  5.6452  0.2311E-02
     89.080     66.430     0.000  0.3003E+03  0.0000E+00  0.1000E+01 184.500  1.0000  5.6452  0.3638E-02
     90.590    -10.190     0.000  0.3002E+03  0.0000E+00  0.1000E+01 184.500  1.0000  5.6452  0.1247E-02
     91.060    165.200     0.000  0.3003E+03  0.0000E+00  0.1000E+01 184.500  1.0000  5.6452  0.1789E-02
     92.420    -23.810     0.000  0.3002E+03  0.0000E+00  0.1000E+01 184.500  1.0000  5.6452  0.2239E-02
     93.260     14.910     0.000  0.3002E+03  0.0000E+00  0.1000E+01 184.500  1.0000  5.6452  0.1526E-02
     93.560     36.030     0.000  0.3002E+03  0.0000E+00  0.1000E+01 184.500  1.0000  5.6452  0.2803E-02
     94.720    -86.680     0.000  0.3003E+03  0.0000E+00  0.1000E+01 184.500  1.0000  5.6452  0.3704E-02
     95.540     24.770     0.000  0.3002E+03  0.0000E+00  0.1000E+01 184.500  1.0000  5.6452  0.2610E-02
     95.900   -104.600     0.000  0.3003E+03  0.0000E+00  0.1000E+01 184.500  1.0000  5.6452  0.3587E-02
     99.220    -64.340     0.000  0.3003E+03  0.0000E+00  0.1000E+01 184.500  1.0000  5.6452  0.3568E-02
    100.000   -200.000     0.000  0.3003E+03  0.0000E+00  0.1000E+01 184.500  1.0000  5.6452  0.1201E-02
    100.000    -10.000     0.000  0.3002E+03  0.0000E+00  0.1000E+01 184.500  1.0000  5.6452  0.2060E-02
    100.000      0.000     0.000  0.3001E+03  0.0000E+00  0.1000E+01 184.501  1.0000  5.6452  0.1807E-02
    100.000     10.000     0.000  0.3002E+03  0.0000E+00  0.1000E+01 184.500  1.0000  5.6452  0.1985E-02
    100.000    200.000     0.000  0.3003E+03  0.0000E+00  0.1000E+01 184.500  1.0000  5.6452  0.9535E-03
    100.500    -28.820     0.000  0.3002E+03  0.0000E+00  0.1000E+01 184.500  1.0000  5.6452  0.2938E-02
    103.400     72.310     0.000  0.3003E+03  0.0000E+00  0.1000E+01 184.500  1.0000  5.6452  0.3788E-02
    103.800    -47.000     0.000  0.3003E+03  0.0000E+00  0.1000E+01 184.500  1.0000  5.6452  0.3386E-02
    104.300     16.790     0.000  0.3002E+03  0.0000E+00  0.1000E+01 184.500  1.0000  5.6452  0.2787E-02
    107.800     25.010     0.000  0.3002E+03  0.0000E+00  0.1000E+01 184.500  1.0000  5.6452  0.3024E-02
    108.000      4.792     0.000  0.3002E+03  0.0000E+00  0.1000E+01 184.500  1.0000  5.6452  0.1801E-02
    108.400     93.660     0.000  0.3003E+03  0.0000E+00  0.1000E+01 184.500  1.0000  5.6452  0.3417E-02
    108.700     51.130     0.000  0.3003E+03  0.0000E+00  0.1000E+01 184.500  1.0000  5.6452  0.3628E-02
    109.000   -119.000     0.000  0.3003E+03  0.0000E+00  0.1000E+01 184.500  1.0000  5.6452  0.2501E-02
    109.200     -7.025     0.000  0.3002E+03  0.0000E+00  0.1000E+01 184.500  1.0000  5.6452  0.1987E-02
    111.100    116.200     0.000  0.3003E+03  0.0000E+00  0.1000E+01 184.500  1.0000  5.6452  0.2939E-02
    111.700   -143.300     0.000  0.3003E+03  0.0000E+00  0.1000E+01 184.500  1.0000  5.6452  0.2077E-02
    112.800    -18.170     0.000  0.3002E+03  0.0000E+00  0.1000E+01 184.500  1.0000  5.6452  0.2825E-02
    113.000    -30.640     0.000  0.3002E+03  0.0000E+00  0.1000E+01 184.500  1.0000  5.6452  0.3075E-02
    114.800     30.130     0.000  0.3002E+03  0.0000E+00  0.1000E+01 184.500  1.0000  5.6452  0.3125E-02
    115.500    -77.400     0.000  0.3003E+03  0.0000E+00  0.1000E+01 184.500  1.0000  5.6452  0.3149E-02
    115.600      1.629     0.000  0.3002E+03  0.0000E+00  0.1000E+01 184.500  1.0000  5.6452  0.1214E-02
    115.700   -169.000     0.000  0.3003E+03  0.0000E+00  0.1000E+01 184.500  1.0000  5.6452  0.1193E-02
    117.000    -61.310     0.000  0.3003E+03  0.0000E+00  0.1000E+01 184.500  1.0000  5.6452  0.3218E-02
    117.000     14.390     0.000  0.3002E+03  0.0000E+00  0.1000E+01 184.500  1.0000  5.6452  0.2190E-02
    120.400     -9.988     0.000  0.3002E+03  0.0000E+00  0.1000E+01 184.500  1.0000  5.6452  0.1308E-02
    121.100    140.900     0.000  0.3003E+03  0.0000E+00  0.1000E+01 184.500  1.0000  5.6452  0.1763E-02
    121.700     71.210     0.000  0.3003E+03  0.0000E+00  0.1000E+01 184.500  1.0000  5.6452  0.3217E-02
    124.900    -47.950     0.000  0.3003E+03  0.0000E+00  0.1000E+01 184.500  1.0000  5.6452  0.2946E-02
    125.500    -95.160     0.000  0.3003E+03  0.0000E+00  0.1000E+01 184.500  1.0000  5.6452  0.2449E-02
    127.800      5.057     0.000  0.3002E+03  0.0000E+00  0.1000E+01 184.500  1.0000  5.6452  0.7146E-03
    129.600    -20.930     0.000  0.3002E+03  0.0000E+00  0.1000E+01 184.500  1.0000  5.6452  0.1600E-02
    130.300     46.260     0.000  0.3003E+03  0.0000E+00  0.1000E+01 184.500  1.0000  5.6452  0.2633E-02
    131.300    164.100     0.000  0.3003E+03  0.0000E+00  0.1000E+01 184.500  1.0000  5.6452  0.8057E-03
    131.600    -34.380     0.000  0.3002E+03  0.0000E+00  0.1000E+01 184.500  1.0000  5.6452  0.2173E-02
    133.200   -124.200     0.000  0.3003E+03  0.0000E+00  0.1000E+01 184.500  1.0000  5.6452  0.1729E-02
    133.600     25.080     0.000  0.3002E+03  0.0000E+00  0.1000E+01 184.500  1.0000  5.6452  0.1673E-02
    134.600     91.740     0.000  0.3003E+03  0.0000E+00  0.1000E+01 184.500  1.0000  5.6452  0.2326E-02
    138.000    -69.510     0.000  0.3003E+03  0.0000E+00  0.1000E+01 184.500  1.0000  5.6452  0.2032E-02