
          ---- Aqueous concentrations vs. grid blocks at specified times ----

   Unit: 
    - Aqueous species: Total concencentrations in mol/L     
    - Component in dry nodes in mol/L medium

VARIABLES =X,        Y,       Z,  P(bar)  ,      Sg,       Sl  ,     T(C)  ,  aH2O,    pH     ,t_tracer   ,
ZONE T= "0.500000E+00 d"  F=POINT
   -211.000   -108.300    69.460  0.3006E+03  0.0000E+00  0.1000E+01 193.500  1.0000  5.6452  0.2827E-06
   -210.900    -81.310    70.370  0.3006E+03  0.0000E+00  0.1000E+01 193.499  1.0000  5.6452  0.1376E-09
   -210.900    -72.400    70.670  0.3006E+03  0.0000E+00  0.1000E+01 193.496  1.0000  5.6452  0.8983E-10
   -210.900    -54.320    71.270  0.3006E+03  0.0000E+00  0.1000E+01 193.474  1.0000  5.6452  0.8970E-10
   -210.800    -40.070    71.750  0.3006E+03  0.0000E+00  0.1000E+01 193.443  1.0000  5.6452  0.8967E-10
   -210.800    -27.330    72.180  0.3006E+03  0.0000E+00  0.1000E+01 193.215  1.0000  5.6452  0.8968E-10
   -210.800    -14.140    72.620  0.3006E+03  0.0000E+00  0.1000E+01 193.241  1.0000  5.6452  0.8969E-10
   -210.800     -0.355    73.090  0.3006E+03  0.0000E+00  0.1000E+01 192.940  1.0000  5.6452  0.8974E-10
   -210.700     12.430    73.520  0.3006E+03  0.0000E+00  0.1000E+01 193.353  1.0000  5.6452  0.8970E-10
   -210.700     26.630    73.990  0.3006E+03  0.0000E+00  0.1000E+01 193.343  1.0000  5.6452  0.8969E-10
   -210.700     41.450    74.490  0.3006E+03  0.0000E+00  0.1000E+01 193.466  1.0000  5.6452  0.8969E-10
   -210.700     53.610    74.900  0.3006E+03  0.0000E+00  0.1000E+01 193.451  1.0000  5.6452  0.8970E-10
   -210.600     76.000    75.640  0.3006E+03  0.0000E+00  0.1000E+01 193.496  1.0000  5.6452  0.1072E-09
   -210.500    107.600    76.710  0.3006E+03  0.0000E+00  0.1000E+01 193.500  1.0000  5.6452  0.4075E-05
   -204.200     12.450    72.750  0.3006E+03  0.0000E+00  0.1000E+01 192.558  1.0000  5.6452  0.8972E-10
   -203.300    -14.130    71.730  0.3006E+03  0.0000E+00  0.1000E+01 191.645  1.0000  5.6452  0.8975E-10
   -201.300     76.020    74.560  0.3006E+03  0.0000E+00  0.1000E+01 193.486  1.0000  5.6452  0.1074E-09
   -200.900    -40.050    70.580  0.3006E+03  0.0000E+00  0.1000E+01 192.929  1.0000  5.6452  0.8969E-10
   -200.300     25.030    72.710  0.3006E+03  0.0000E+00  0.1000E+01 192.481  1.0000  5.6452  0.8973E-10
   -199.600     41.470    73.180  0.3006E+03  0.0000E+00  0.1000E+01 192.933  1.0000  5.6452  0.8970E-10
   -199.300      0.070    71.740  0.3006E+03  0.0000E+00  0.1000E+01 189.461  1.0000  5.6452  0.8992E-10
   -198.900    -72.380    69.250  0.3006E+03  0.0000E+00  0.1000E+01 193.471  1.0000  5.6452  0.8997E-10
   -197.100    -52.840    69.690  0.3006E+03  0.0000E+00  0.1000E+01 193.236  1.0000  5.6452  0.8967E-10
   -196.400    -27.570    70.470  0.3006E+03  0.0000E+00  0.1000E+01 190.828  1.0000  5.6452  0.8980E-10
   -194.800     57.590    73.170  0.3006E+03  0.0000E+00  0.1000E+01 193.329  1.0000  5.6452  0.8971E-10
   -194.100     14.140    71.610  0.3006E+03  0.0000E+00  0.1000E+01 187.956  1.0000  5.6452  0.8993E-10
   -193.100    -11.880    70.600  0.3006E+03  0.0000E+00  0.1000E+01 184.083  1.0000  5.6452  0.9014E-10
   -191.800     91.530    73.970  0.3006E+03  0.0000E+00  0.1000E+01 193.498  1.0000  5.6452  0.2218E-09
   -191.800    107.600    74.510  0.3006E+03  0.0000E+00  0.1000E+01 193.500  1.0000  5.6452  0.1491E-05
   -190.600     29.150    71.710  0.3006E+03  0.0000E+00  0.1000E+01 189.432  1.0000  5.6452  0.8987E-10
   -188.400   -108.200    66.800  0.3006E+03  0.0000E+00  0.1000E+01 193.500  1.0000  5.6452  0.2111E-06
   -188.400    -95.020    67.250  0.3006E+03  0.0000E+00  0.1000E+01 193.499  1.0000  5.6452  0.3747E-07
   -188.300      3.100    70.560  0.3007E+03  0.0000E+00  0.1000E+01 174.123  1.0000  5.6452  0.9083E-10
   -187.400     71.970    72.770  0.3006E+03  0.0000E+00  0.1000E+01 193.450  1.0000  5.6452  0.9279E-10
   -186.300    -58.930    68.220  0.3006E+03  0.0000E+00  0.1000E+01 193.173  1.0000  5.6452  0.8966E-10
   -185.700    -23.460    69.350  0.3006E+03  0.0000E+00  0.1000E+01 180.186  1.0000  5.6452  0.9049E-10
   -185.400    -41.630    68.700  0.3006E+03  0.0000E+00  0.1000E+01 190.773  1.0000  5.6452  0.8979E-10
   -184.400    -75.810    67.420  0.3006E+03  0.0000E+00  0.1000E+01 193.476  1.0000  5.6452  0.9035E-10
   -184.200     17.820    70.570  0.3006E+03  0.0000E+00  0.1000E+01 174.594  1.0000  5.6452  0.9080E-10
   -184.100     42.350    71.380  0.3006E+03  0.0000E+00  0.1000E+01 191.016  1.0000  5.6452  0.8993E-10
   -183.600     -8.767    69.590  0.3007E+03  0.0000E+00  0.1000E+01 165.525  1.0000  5.6452  0.9124E-10
   -180.200     56.030    71.390  0.3006E+03  0.0000E+00  0.1000E+01 192.841  1.0000  5.6452  0.8978E-10
   -179.200     29.750    70.390  0.3006E+03  0.0000E+00  0.1000E+01 182.489  1.0000  5.6452  0.9053E-10
   -178.600     -2.557    69.210  0.3007E+03  0.0000E+00  0.1000E+01 140.416  1.0000  5.6452  0.9315E-10
   -177.200     79.900    71.840  0.3006E+03  0.0000E+00  0.1000E+01 193.483  1.0000  5.6452  0.1054E-09
   -177.100     10.810    69.490  0.3007E+03  0.0000E+00  0.1000E+01 149.722  1.0000  5.6452  0.9251E-10
   -177.000    107.600    72.760  0.3006E+03  0.0000E+00  0.1000E+01 193.500  1.0000  5.6452  0.1358E-05
   -176.600    -28.060    68.120  0.3006E+03  0.0000E+00  0.1000E+01 178.871  1.0000  5.6452  0.9047E-10
   -176.200     92.650    72.160  0.3006E+03  0.0000E+00  0.1000E+01 193.499  1.0000  5.6452  0.5047E-08
   -175.500    -66.000    66.710  0.3006E+03  0.0000E+00  0.1000E+01 193.291  1.0000  5.6452  0.8964E-10
   -174.900    -13.020    68.420  0.3007E+03  0.0000E+00  0.1000E+01 138.996  1.0000  5.6452  0.9316E-10
   -172.700      3.783    68.730  0.3007E+03  0.0000E+00  0.1000E+01 117.381  1.0000  5.6452  0.9502E-10
   -172.400     66.210    70.820  0.3006E+03  0.0000E+00  0.1000E+01 193.287  1.0000  5.6452  0.9017E-10
   -171.800    -49.850    66.810  0.3006E+03  0.0000E+00  0.1000E+01 191.408  1.0000  5.6452  0.8970E-10
   -171.600     22.580    69.240  0.3006E+03  0.0000E+00  0.1000E+01 161.099  1.0000  5.6452  0.9199E-10
   -170.400     13.450    68.790  0.3007E+03  0.0000E+00  0.1000E+01 134.448  1.0000  5.6452  0.9389E-10
   -170.100     45.390    69.840  0.3006E+03  0.0000E+00  0.1000E+01 188.910  1.0000  5.6452  0.8981E-10
   -169.300    -37.530    66.940  0.3006E+03  0.0000E+00  0.1000E+01 184.349  1.0000  5.6452  0.9008E-10
   -168.700    -82.250    65.350  0.3006E+03  0.0000E+00  0.1000E+01 193.479  1.0000  5.6452  0.7184E-08
   -168.300    -23.660    67.270  0.3006E+03  0.0000E+00  0.1000E+01 161.654  1.0000  5.6452  0.9153E-10
   -166.900     -5.304    67.750  0.3007E+03  0.0000E+00  0.1000E+01 102.375  1.0000  5.6452  0.9603E-10
   -166.300   -108.200    64.190  0.3006E+03  0.0000E+00  0.1000E+01 193.500  1.0000  5.6452  0.1828E-06
   -166.100     54.470    69.680  0.3006E+03  0.0000E+00  0.1000E+01 192.012  1.0000  5.6452  0.8966E-10
   -165.900     34.150    68.960  0.3006E+03  0.0000E+00  0.1000E+01 177.980  1.0000  5.6452  0.9036E-10
   -165.600     98.560    71.100  0.3006E+03  0.0000E+00  0.1000E+01 193.500  1.0000  5.6452  0.2660E-06
   -165.600    107.700    71.410  0.3006E+03  0.0000E+00  0.1000E+01 193.500  1.0000  5.6452  0.1262E-05
   -164.800    -63.440    65.520  0.3006E+03  0.0000E+00  0.1000E+01 193.155  1.0000  5.6452  0.8962E-10
   -164.000     85.120    70.460  0.3006E+03  0.0000E+00  0.1000E+01 193.493  1.0000  5.6452  0.1316E-08
   -163.900     24.940    68.410  0.3006E+03  0.0000E+00  0.1000E+01 155.913  1.0000  5.6452  0.9179E-10
   -162.800     71.880    69.870  0.3006E+03  0.0000E+00  0.1000E+01 193.420  1.0000  5.6452  0.9220E-10
   -161.000     18.370    67.850  0.3007E+03  0.0000E+00  0.1000E+01 126.282  1.0000  5.6452  0.9376E-10
   -160.700    -97.070    63.900  0.3006E+03  0.0000E+00  0.1000E+01 193.498  1.0000  5.6452  0.7533E-07
   -160.500    -20.560    66.470  0.3006E+03  0.0000E+00  0.1000E+01 134.395  1.0000  5.6452  0.9324E-10
   -160.000    -12.850    66.670  0.3007E+03  0.0000E+00  0.1000E+01 112.409  1.0000  5.6452  0.9516E-10
   -160.000     -6.425    66.890  0.3007E+03  0.0000E+00  0.1000E+01  90.523  1.0000  5.6452  0.9701E-10
   -160.000     -0.000    67.110  0.3009E+03  0.0000E+00  0.1000E+01  83.779  1.0000  5.6452  0.9782E-10
   -160.000      6.425    67.320  0.3008E+03  0.0000E+00  0.1000E+01  91.488  1.0000  5.6452  0.9696E-10
   -160.000     12.850    67.540  0.3007E+03  0.0000E+00  0.1000E+01 106.829  1.0000  5.6452  0.9553E-10
   -157.700    -54.200    65.000  0.3006E+03  0.0000E+00  0.1000E+01 191.543  1.0000  5.6452  0.8964E-10
   -157.600     25.320    67.680  0.3006E+03  0.0000E+00  0.1000E+01 155.965  1.0000  5.6452  0.9159E-10
   -157.200    -28.580    65.810  0.3006E+03  0.0000E+00  0.1000E+01 164.400  1.0000  5.6452  0.9116E-10
   -156.900    -42.500    65.300  0.3006E+03  0.0000E+00  0.1000E+01 185.323  1.0000  5.6452  0.8995E-10
   -156.800     59.170    68.730  0.3006E+03  0.0000E+00  0.1000E+01 192.480  1.0000  5.6452  0.8961E-10
   -155.800     95.240    69.840  0.3006E+03  0.0000E+00  0.1000E+01 193.499  1.0000  5.6452  0.1753E-06
   -155.200     -9.709    66.220  0.3007E+03  0.0000E+00  0.1000E+01 106.337  1.0000  5.6452  0.9571E-10
   -155.200      8.189    66.820  0.3007E+03  0.0000E+00  0.1000E+01 102.445  1.0000  5.6452  0.9614E-10
   -155.000     44.910    68.050  0.3006E+03  0.0000E+00  0.1000E+01 188.013  1.0000  5.6452  0.8980E-10
   -154.700    107.700    70.130  0.3006E+03  0.0000E+00  0.1000E+01 193.500  1.0000  5.6452  0.9523E-06
   -154.200    -68.050    64.120  0.3006E+03  0.0000E+00  0.1000E+01 193.218  1.0000  5.6452  0.4651E-09
   -153.500     19.350    67.000  0.3006E+03  0.0000E+00  0.1000E+01 132.040  1.0000  5.6452  0.9363E-10
   -152.700     76.830    68.850  0.3006E+03  0.0000E+00  0.1000E+01 193.479  1.0000  5.6452  0.3289E-09
   -152.100    -18.010    65.560  0.3006E+03  0.0000E+00  0.1000E+01 133.618  1.0000  5.6452  0.9341E-10
   -151.100    -81.660    63.290  0.3006E+03  0.0000E+00  0.1000E+01 193.469  1.0000  5.6452  0.1513E-07
   -150.200     85.680    68.860  0.3006E+03  0.0000E+00  0.1000E+01 193.496  1.0000  5.6452  0.3177E-07
   -149.500   -108.200    62.210  0.3006E+03  0.0000E+00  0.1000E+01 193.500  1.0000  5.6452  0.1204E-06
   -149.200     31.360    66.910  0.3006E+03  0.0000E+00  0.1000E+01 171.195  1.0000  5.6452  0.9056E-10
   -148.400      1.100    65.780  0.3007E+03  0.0000E+00  0.1000E+01 105.962  1.0000  5.6452  0.9594E-10
   -147.700     65.260    67.870  0.3006E+03  0.0000E+00  0.1000E+01 193.148  1.0000  5.6452  0.9237E-10
   -146.300     10.590    65.850  0.3006E+03  0.0000E+00  0.1000E+01 125.196  1.0000  5.6452  0.9435E-10
   -146.200     20.800    66.190  0.3006E+03  0.0000E+00  0.1000E+01 148.223  1.0000  5.6452  0.9240E-10
   -146.200    -23.770    64.680  0.3006E+03  0.0000E+00  0.1000E+01 158.757  1.0000  5.6452  0.9153E-10
   -145.900    101.200    68.870  0.3006E+03  0.0000E+00  0.1000E+01 193.500  1.0000  5.6452  0.5176E-06
   -145.900    107.700    69.090  0.3006E+03  0.0000E+00  0.1000E+01 193.500  1.0000  5.6452  0.9810E-06
   -145.200     92.880    68.510  0.3006E+03  0.0000E+00  0.1000E+01 193.499  1.0000  5.6452  0.9680E-07
   -145.100     -6.687    65.120  0.3006E+03  0.0000E+00  0.1000E+01 126.123  1.0000  5.6452  0.9437E-10
   -144.800     40.560    66.670  0.3006E+03  0.0000E+00  0.1000E+01 184.154  1.0000  5.6452  0.8979E-10
   -144.700    -51.950    63.540  0.3006E+03  0.0000E+00  0.1000E+01 190.970  1.0000  5.6452  0.9131E-10
   -144.100    -36.490    64.000  0.3006E+03  0.0000E+00  0.1000E+01 180.411  1.0000  5.6452  0.9008E-10
   -142.800     70.930    67.480  0.3006E+03  0.0000E+00  0.1000E+01 193.383  1.0000  5.6452  0.1640E-09
   -142.300    -92.650    61.880  0.3006E+03  0.0000E+00  0.1000E+01 193.496  1.0000  5.6452  0.5905E-07
   -142.100     54.190    66.830  0.3006E+03  0.0000E+00  0.1000E+01 191.381  1.0000  5.6452  0.8971E-10
   -141.700    -67.720    62.660  0.3006E+03  0.0000E+00  0.1000E+01 193.194  1.0000  5.6452  0.1746E-08
   -141.700     27.500    65.880  0.3006E+03  0.0000E+00  0.1000E+01 167.342  1.0000  5.6452  0.9083E-10
   -139.800    -11.600    64.330  0.3006E+03  0.0000E+00  0.1000E+01 145.995  1.0000  5.6452  0.9278E-10
   -139.300     80.070    67.370  0.3006E+03  0.0000E+00  0.1000E+01 193.482  1.0000  5.6452  0.1333E-07
   -139.200      1.130    64.700  0.3006E+03  0.0000E+00  0.1000E+01 135.609  1.0000  5.6452  0.9354E-10
   -137.900    107.700    68.150  0.3006E+03  0.0000E+00  0.1000E+01 193.500  1.0000  5.6452  0.8425E-06
   -137.200     86.590    67.350  0.3006E+03  0.0000E+00  0.1000E+01 193.497  1.0000  5.6452  0.5780E-07
   -137.200     13.930    64.890  0.3006E+03  0.0000E+00  0.1000E+01 151.130  1.0000  5.6452  0.9224E-10
   -136.600     97.530    67.650  0.3006E+03  0.0000E+00  0.1000E+01 193.500  1.0000  5.6452  0.3407E-06
   -136.400     44.820    65.840  0.3006E+03  0.0000E+00  0.1000E+01 188.539  1.0000  5.6452  0.8948E-10
   -136.400    -21.810    63.580  0.3006E+03  0.0000E+00  0.1000E+01 168.056  1.0000  5.6452  0.9088E-10
   -135.100     35.430    65.360  0.3006E+03  0.0000E+00  0.1000E+01 181.668  1.0000  5.6452  0.8985E-10
   -134.500     71.870    66.530  0.3006E+03  0.0000E+00  0.1000E+01 193.457  1.0000  5.6452  0.2710E-08
   -134.200     58.850    66.060  0.3006E+03  0.0000E+00  0.1000E+01 192.601  1.0000  5.6452  0.8984E-10
   -133.900     65.620    66.250  0.3006E+03  0.0000E+00  0.1000E+01 193.307  1.0000  5.6452  0.1223E-09
   -133.300    -80.180    61.240  0.3006E+03  0.0000E+00  0.1000E+01 193.463  1.0000  5.6452  0.2228E-07
   -133.000    -42.990    62.470  0.3006E+03  0.0000E+00  0.1000E+01 188.798  1.0000  5.6452  0.8991E-10
   -132.800   -108.100    60.220  0.3006E+03  0.0000E+00  0.1000E+01 193.500  1.0000  5.6452  0.1150E-06
   -132.800     24.620    64.730  0.3006E+03  0.0000E+00  0.1000E+01 173.501  1.0000  5.6452  0.9049E-10
   -132.800     -7.982    63.620  0.3006E+03  0.0000E+00  0.1000E+01 157.231  1.0000  5.6452  0.9176E-10
   -132.400     52.320    65.620  0.3006E+03  0.0000E+00  0.1000E+01 191.471  1.0000  5.6452  0.8946E-10
   -132.000    -55.380    61.930  0.3006E+03  0.0000E+00  0.1000E+01 192.401  1.0000  5.6452  0.2711E-09
   -132.000    -30.590    62.760  0.3006E+03  0.0000E+00  0.1000E+01 181.821  1.0000  5.6452  0.8987E-10
   -130.600     76.990    66.240  0.3006E+03  0.0000E+00  0.1000E+01 193.485  1.0000  5.6452  0.7385E-08
   -130.100      5.365    63.750  0.3006E+03  0.0000E+00  0.1000E+01 158.427  1.0000  5.6452  0.9168E-10
   -130.000     90.870    66.640  0.3006E+03  0.0000E+00  0.1000E+01 193.499  1.0000  5.6452  0.1901E-06
   -129.300    -66.170    61.250  0.3006E+03  0.0000E+00  0.1000E+01 193.280  1.0000  5.6452  0.2199E-08
   -128.800     83.450    66.260  0.3006E+03  0.0000E+00  0.1000E+01 193.498  1.0000  5.6452  0.6299E-07
   -128.600    -94.470    60.210  0.3006E+03  0.0000E+00  0.1000E+01 193.497  1.0000  5.6452  0.6992E-07
   -127.200     16.520    63.800  0.3006E+03  0.0000E+00  0.1000E+01 170.575  1.0000  5.6452  0.9082E-10
   -127.100    100.600    66.620  0.3006E+03  0.0000E+00  0.1000E+01 193.500  1.0000  5.6452  0.3917E-06
   -127.000    107.700    66.860  0.3006E+03  0.0000E+00  0.1000E+01 193.500  1.0000  5.6452  0.8907E-06
   -126.600     32.790    64.280  0.3006E+03  0.0000E+00  0.1000E+01 184.378  1.0000  5.6452  0.8977E-10
   -126.300    -16.180    62.590  0.3006E+03  0.0000E+00  0.1000E+01 174.776  1.0000  5.6452  0.9035E-10
   -125.600     48.690    64.690  0.3006E+03  0.0000E+00  0.1000E+01 191.694  1.0000  5.6452  0.8943E-10
   -125.300     -4.216    62.860  0.3006E+03  0.0000E+00  0.1000E+01 169.766  1.0000  5.6452  0.9075E-10
   -125.200     41.990    64.420  0.3006E+03  0.0000E+00  0.1000E+01 188.629  1.0000  5.6452  0.8949E-10
   -124.400     77.960    65.540  0.3006E+03  0.0000E+00  0.1000E+01 193.495  1.0000  5.6452  0.2898E-07
   -124.200     67.920    65.180  0.3005E+03  0.0000E+00  0.1000E+01 193.373  1.0000  5.6452  0.3096E-08
   -122.500     26.440    63.580  0.3006E+03  0.0000E+00  0.1000E+01 181.237  1.0000  5.6452  0.9018E-10
   -122.500     60.370    64.720  0.3005E+03  0.0000E+00  0.1000E+01 192.674  1.0000  5.6452  0.9565E-09
   -122.500    -26.900    61.770  0.3006E+03  0.0000E+00  0.1000E+01 185.928  1.0000  5.6452  0.8958E-10
   -122.000    -37.260    61.370  0.3006E+03  0.0000E+00  0.1000E+01 189.572  1.0000  5.6452  0.8954E-10
   -121.200     91.820    65.630  0.3006E+03  0.0000E+00  0.1000E+01 193.500  1.0000  5.6452  0.2226E-06
   -121.200    107.800    66.170  0.3006E+03  0.0000E+00  0.1000E+01 193.500  1.0000  5.6452  0.7402E-06
   -120.800     52.810    64.270  0.3005E+03  0.0000E+00  0.1000E+01 191.858  1.0000  5.6452  0.2369E-09
   -120.400     10.550    62.800  0.3006E+03  0.0000E+00  0.1000E+01 175.586  1.0000  5.6452  0.9068E-10
   -120.300    -70.400    60.040  0.3006E+03  0.0000E+00  0.1000E+01 193.436  1.0000  5.6452  0.8275E-08
   -120.300    -47.870    60.800  0.3006E+03  0.0000E+00  0.1000E+01 192.056  1.0000  5.6452  0.1585E-09
   -119.500     73.640    64.820  0.3005E+03  0.0000E+00  0.1000E+01 193.487  1.0000  5.6452  0.2377E-07
   -119.200      3.452    62.410  0.3006E+03  0.0000E+00  0.1000E+01 176.381  1.0000  5.6452  0.9061E-10
   -119.100     45.260    63.810  0.3005E+03  0.0000E+00  0.1000E+01 190.000  1.0000  5.6452  0.1076E-09
   -118.800    -88.090    59.270  0.3006E+03  0.0000E+00  0.1000E+01 193.495  1.0000  5.6452  0.5523E-07
   -118.200    -15.810    61.630  0.3006E+03  0.0000E+00  0.1000E+01 182.135  1.0000  5.6452  0.8977E-10
   -117.600     -6.109    61.900  0.3006E+03  0.0000E+00  0.1000E+01 179.630  1.0000  5.6452  0.9016E-10
   -117.400     37.700    63.360  0.3005E+03  0.0000E+00  0.1000E+01 186.580  1.0000  5.6452  0.9106E-10
   -117.200    -57.770    60.100  0.3006E+03  0.0000E+00  0.1000E+01 193.167  1.0000  5.6452  0.1540E-08
   -116.900     84.960    64.890  0.3005E+03  0.0000E+00  0.1000E+01 193.499  1.0000  5.6452  0.1254E-06
   -116.600     99.300    65.340  0.3005E+03  0.0000E+00  0.1000E+01 193.500  1.0000  5.6452  0.5011E-06
   -116.500     64.510    64.150  0.3005E+03  0.0000E+00  0.1000E+01 193.332  1.0000  5.6452  0.6616E-08
   -115.700     30.150    62.900  0.3005E+03  0.0000E+00  0.1000E+01 182.031  1.0000  5.6452  0.8988E-10
   -114.100    -78.770    59.010  0.3006E+03  0.0000E+00  0.1000E+01 193.487  1.0000  5.6452  0.2922E-07
   -114.100     22.590    62.450  0.3005E+03  0.0000E+00  0.1000E+01 179.013  1.0000  5.6452  0.3046E-09
   -113.900   -108.100    58.000  0.3005E+03  0.0000E+00  0.1000E+01 193.500  1.0000  5.6452  0.1331E-06
   -113.800    -99.730    58.280  0.3005E+03  0.0000E+00  0.1000E+01 193.499  1.0000  5.6452  0.7637E-07
   -113.700    -21.170    60.920  0.3006E+03  0.0000E+00  0.1000E+01 187.936  1.0000  5.6452  0.8948E-10
   -112.400     15.040    62.000  0.3005E+03  0.0000E+00  0.1000E+01 176.011  1.0000  5.6452  0.1131E-09
   -111.700     75.820    63.970  0.3005E+03  0.0000E+00  0.1000E+01 193.493  1.0000  5.6452  0.4394E-07
   -111.000    -41.160    59.930  0.3005E+03  0.0000E+00  0.1000E+01 192.192  1.0000  5.6452  0.1191E-09
   -110.800    -11.510    60.910  0.3005E+03  0.0000E+00  0.1000E+01 185.224  1.0000  5.6452  0.8978E-10
   -110.700      7.481    61.530  0.3005E+03  0.0000E+00  0.1000E+01 176.173  1.0000  5.6452  0.9240E-10
   -110.600    -31.620    60.210  0.3005E+03  0.0000E+00  0.1000E+01 190.697  1.0000  5.6452  0.9064E-10
   -110.300     92.540    64.370  0.3005E+03  0.0000E+00  0.1000E+01 193.500  1.0000  5.6452  0.3580E-06
   -109.800     61.530    63.270  0.3005E+03  0.0000E+00  0.1000E+01 193.429  1.0000  5.6452  0.6794E-08
   -109.600     34.810    62.330  0.3005E+03  0.0000E+00  0.1000E+01 190.030  1.0000  5.6452  0.9003E-10
   -109.400     83.860    63.970  0.3005E+03  0.0000E+00  0.1000E+01 193.499  1.0000  5.6452  0.1458E-06
   -109.400    -49.810    59.450  0.3005E+03  0.0000E+00  0.1000E+01 193.041  1.0000  5.6452  0.7148E-09
   -109.100     54.120    62.930  0.3005E+03  0.0000E+00  0.1000E+01 192.992  1.0000  5.6452  0.1323E-08
   -109.000     -0.074    61.090  0.3005E+03  0.0000E+00  0.1000E+01 177.976  1.0000  5.6452  0.9023E-10
   -108.300    -66.620    58.750  0.3005E+03  0.0000E+00  0.1000E+01 193.442  1.0000  5.6452  0.1044E-07
   -107.700     43.150    62.390  0.3005E+03  0.0000E+00  0.1000E+01 192.184  1.0000  5.6452  0.1846E-09
   -107.400     22.580    61.670  0.3005E+03  0.0000E+00  0.1000E+01 188.045  1.0000  5.6452  0.2613E-09
   -107.300     -7.630    60.620  0.3005E+03  0.0000E+00  0.1000E+01 182.748  1.0000  5.6452  0.2268E-07
   -105.600    -15.180    60.180  0.3005E+03  0.0000E+00  0.1000E+01 185.943  1.0000  5.6452  0.4105E-06
   -105.300     15.280    61.170  0.3005E+03  0.0000E+00  0.1000E+01 187.019  1.0000  5.6452  0.1296E-09
   -104.800   -108.100    56.940  0.3005E+03  0.0000E+00  0.1000E+01 193.500  1.0000  5.6452  0.1098E-06
   -104.500     69.440    62.910  0.3005E+03  0.0000E+00  0.1000E+01 193.488  1.0000  5.6452  0.3144E-07
   -104.200    -88.480    57.530  0.3005E+03  0.0000E+00  0.1000E+01 193.498  1.0000  5.6452  0.5915E-07
   -104.000    -56.720    58.580  0.3005E+03  0.0000E+00  0.1000E+01 193.353  1.0000  5.6452  0.3742E-08
   -104.000    -22.740    59.710  0.3005E+03  0.0000E+00  0.1000E+01 188.523  1.0000  5.6452  0.2632E-05
   -103.700     99.930    63.840  0.3005E+03  0.0000E+00  0.1000E+01 193.500  1.0000  5.6452  0.4618E-06
   -103.700    107.800    64.110  0.3005E+03  0.0000E+00  0.1000E+01 193.500  1.0000  5.6452  0.6061E-06
   -102.300    -30.300    59.270  0.3005E+03  0.0000E+00  0.1000E+01 190.386  1.0000  5.6452  0.8932E-05
   -101.400     49.400    61.860  0.3005E+03  0.0000E+00  0.1000E+01 193.229  1.0000  5.6452  0.8762E-09
   -101.200      3.320    60.280  0.3005E+03  0.0000E+00  0.1000E+01 187.274  1.0000  5.6452  0.9191E-10
   -100.800     30.260    61.150  0.3005E+03  0.0000E+00  0.1000E+01 192.085  1.0000  5.6452  0.1671E-09
   -100.600    -37.850    58.810  0.3005E+03  0.0000E+00  0.1000E+01 191.813  1.0000  5.6452  0.2956E-04
    -99.470    -74.270    57.450  0.3005E+03  0.0000E+00  0.1000E+01 193.490  1.0000  5.6452  0.2883E-07
    -99.430     59.860    61.980  0.3005E+03  0.0000E+00  0.1000E+01 193.454  1.0000  5.6452  0.1384E-07
    -99.300     78.990    62.620  0.3005E+03  0.0000E+00  0.1000E+01 193.499  1.0000  5.6452  0.1059E-06
    -99.290     89.060    62.960  0.3005E+03  0.0000E+00  0.1000E+01 193.500  1.0000  5.6452  0.3219E-06
    -98.900    -45.410    58.360  0.3005E+03  0.0000E+00  0.1000E+01 192.747  1.0000  5.6452  0.6902E-04
    -98.870     -3.432    59.780  0.3005E+03  0.0000E+00  0.1000E+01 189.575  1.0000  5.6452  0.1304E-07
    -98.640     39.990    61.220  0.3005E+03  0.0000E+00  0.1000E+01 193.013  1.0000  5.6452  0.2946E-09
    -97.820    -63.630    57.600  0.3005E+03  0.0000E+00  0.1000E+01 193.469  1.0000  5.6452  0.1198E-07
    -97.750     19.700    60.420  0.3005E+03  0.0000E+00  0.1000E+01 191.563  1.0000  5.6452  0.1926E-09
    -97.210    -52.960    57.900  0.3005E+03  0.0000E+00  0.1000E+01 193.351  1.0000  5.6452  0.3157E-04
    -97.170      9.865    60.020  0.3005E+03  0.0000E+00  0.1000E+01 191.368  1.0000  5.6452  0.1157E-09
    -96.570    -19.170    58.970  0.3005E+03  0.0000E+00  0.1000E+01 191.388  1.0000  5.6452  0.2499E-05
    -96.170   -108.100    55.920  0.3005E+03  0.0000E+00  0.1000E+01 193.500  1.0000  5.6452  0.1278E-06
    -96.160   -101.000    56.150  0.3005E+03  0.0000E+00  0.1000E+01 193.500  1.0000  5.6452  0.9977E-07
    -95.110    -10.300    59.100  0.3005E+03  0.0000E+00  0.1000E+01 191.462  1.0000  5.6452  0.3425E-06
    -92.800    -39.480    57.840  0.3005E+03  0.0000E+00  0.1000E+01 193.013  1.0000  5.6452  0.4240E-04
    -92.080     25.240    59.950  0.3005E+03  0.0000E+00  0.1000E+01 192.909  1.0000  5.6452  0.1873E-09
    -91.660    -91.570    55.940  0.3005E+03  0.0000E+00  0.1000E+01 193.500  1.0000  5.6452  0.8286E-07
    -91.560    -80.020    56.320  0.3005E+03  0.0000E+00  0.1000E+01 193.498  1.0000  5.6452  0.4375E-07
    -91.270     72.190    61.430  0.3005E+03  0.0000E+00  0.1000E+01 193.497  1.0000  5.6452  0.7146E-07
    -91.180     50.760    60.700  0.3005E+03  0.0000E+00  0.1000E+01 193.428  1.0000  5.6452  0.5344E-08
    -91.060     36.020    60.190  0.3005E+03  0.0000E+00  0.1000E+01 193.247  1.0000  5.6452  0.2767E-09
    -91.040    -56.820    57.050  0.3005E+03  0.0000E+00  0.1000E+01 193.468  1.0000  5.6452  0.1429E-04
    -90.980     94.560    62.160  0.3005E+03  0.0000E+00  0.1000E+01 193.500  1.0000  5.6452  0.3949E-06
    -90.890    103.200    62.440  0.3005E+03  0.0000E+00  0.1000E+01 193.500  1.0000  5.6452  0.5597E-06
    -90.880    107.800    62.600  0.3005E+03  0.0000E+00  0.1000E+01 193.500  1.0000  5.6452  0.6749E-06
    -89.570    -31.510    57.730  0.3005E+03  0.0000E+00  0.1000E+01 192.870  1.0000  5.6452  0.2167E-04
    -89.570      0.574    58.810  0.3005E+03  0.0000E+00  0.1000E+01 192.270  1.0000  5.6452  0.3855E-07
    -89.330    -45.910    57.210  0.3005E+03  0.0000E+00  0.1000E+01 193.359  1.0000  5.6452  0.4637E-04
    -89.170    -67.220    56.470  0.3005E+03  0.0000E+00  0.1000E+01 193.493  1.0000  5.6452  0.2356E-07
    -89.100    -22.390    57.980  0.3005E+03  0.0000E+00  0.1000E+01 192.837  1.0000  5.6452  0.2906E-05
    -88.200     13.660    59.100  0.3005E+03  0.0000E+00  0.1000E+01 192.879  1.0000  5.6452  0.8331E-09
    -88.050    -11.930    58.200  0.3005E+03  0.0000E+00  0.1000E+01 192.795  1.0000  5.6452  0.6895E-06
    -87.240     84.760    61.390  0.3005E+03  0.0000E+00  0.1000E+01 193.500  1.0000  5.6452  0.2602E-06
    -85.520     64.690    60.510  0.3005E+03  0.0000E+00  0.1000E+01 193.493  1.0000  5.6452  0.4851E-07
    -85.020    -55.660    56.370  0.3005E+03  0.0000E+00  0.1000E+01 193.484  1.0000  5.6452  0.1618E-04
    -84.170     40.070    59.510  0.3005E+03  0.0000E+00  0.1000E+01 193.430  1.0000  5.6452  0.1647E-08
    -83.580     25.890    58.960  0.3005E+03  0.0000E+00  0.1000E+01 193.325  1.0000  5.6452  0.2900E-09
    -82.080    -38.800    56.590  0.3005E+03  0.0000E+00  0.1000E+01 193.376  1.0000  5.6452  0.3799E-04
    -82.030     52.890    59.690  0.3005E+03  0.0000E+00  0.1000E+01 193.481  1.0000  5.6452  0.1371E-07
    -81.920      4.492    58.040  0.3005E+03  0.0000E+00  0.1000E+01 193.116  1.0000  5.6452  0.2890E-07
    -81.860    -88.030    54.910  0.3005E+03  0.0000E+00  0.1000E+01 193.500  1.0000  5.6452  0.7996E-07
    -81.710    -28.100    56.920  0.3005E+03  0.0000E+00  0.1000E+01 193.287  1.0000  5.6452  0.1459E-04
    -81.030    -17.720    57.190  0.3005E+03  0.0000E+00  0.1000E+01 193.276  1.0000  5.6452  0.2067E-05
    -81.010    -70.190    55.410  0.3005E+03  0.0000E+00  0.1000E+01 193.498  1.0000  5.6452  0.2995E-07
    -80.700    -98.830    54.400  0.3005E+03  0.0000E+00  0.1000E+01 193.500  1.0000  5.6452  0.1097E-06
    -80.140     -6.478    57.460  0.3005E+03  0.0000E+00  0.1000E+01 193.235  1.0000  5.6452  0.4547E-06
    -79.860    -49.080    55.980  0.3005E+03  0.0000E+00  0.1000E+01 193.472  1.0000  5.6452  0.3157E-04
    -79.770    -80.800    54.900  0.3005E+03  0.0000E+00  0.1000E+01 193.500  1.0000  5.6452  0.6019E-07
    -79.620    -60.150    55.580  0.3005E+03  0.0000E+00  0.1000E+01 193.496  1.0000  5.6452  0.9456E-05
    -78.790     13.560    57.980  0.3005E+03  0.0000E+00  0.1000E+01 193.325  1.0000  5.6452  0.5445E-08
    -77.640     79.950    60.090  0.3005E+03  0.0000E+00  0.1000E+01 193.500  1.0000  5.6452  0.2203E-06
    -76.900   -108.000    53.640  0.3005E+03  0.0000E+00  0.1000E+01 193.500  1.0000  5.6452  0.1262E-06
    -76.480    107.800    60.900  0.3005E+03  0.0000E+00  0.1000E+01 193.500  1.0000  5.6452  0.6770E-06
    -76.310     31.990    58.300  0.3005E+03  0.0000E+00  0.1000E+01 193.459  1.0000  5.6452  0.9049E-09
    -76.280     43.130    58.690  0.3005E+03  0.0000E+00  0.1000E+01 193.482  1.0000  5.6452  0.4367E-08
    -75.240      2.945    57.190  0.3005E+03  0.0000E+00  0.1000E+01 193.376  1.0000  5.6452  0.1177E-06
    -75.110     95.810    60.320  0.3005E+03  0.0000E+00  0.1000E+01 193.500  1.0000  5.6452  0.4577E-06
    -74.560    -33.950    55.870  0.3005E+03  0.0000E+00  0.1000E+01 193.453  1.0000  5.6452  0.2899E-04
    -73.760    -24.560    56.100  0.3005E+03  0.0000E+00  0.1000E+01 193.439  1.0000  5.6452  0.1135E-04
    -73.710     58.420    58.900  0.3005E+03  0.0000E+00  0.1000E+01 193.496  1.0000  5.6452  0.3087E-07
    -73.480     68.870    59.230  0.3005E+03  0.0000E+00  0.1000E+01 193.499  1.0000  5.6452  0.1129E-06
    -73.470     21.120    57.600  0.3005E+03  0.0000E+00  0.1000E+01 193.450  1.0000  5.6452  0.2453E-08
    -73.420    -76.610    54.300  0.3005E+03  0.0000E+00  0.1000E+01 193.500  1.0000  5.6452  0.5605E-07
    -73.000     50.420    58.550  0.3005E+03  0.0000E+00  0.1000E+01 193.495  1.0000  5.6452  0.1292E-07
    -72.870    -44.990    55.300  0.3005E+03  0.0000E+00  0.1000E+01 193.481  1.0000  5.6452  0.3364E-04
    -72.820    -90.430    53.760  0.3005E+03  0.0000E+00  0.1000E+01 193.500  1.0000  5.6452  0.9572E-07
    -72.820    -62.470    54.700  0.3005E+03  0.0000E+00  0.1000E+01 193.499  1.0000  5.6452  0.7349E-05
    -72.810    -15.190    56.290  0.3005E+03  0.0000E+00  0.1000E+01 193.432  1.0000  5.6452  0.2476E-05
    -72.620    -55.480    54.920  0.3005E+03  0.0000E+00  0.1000E+01 193.495  1.0000  5.6452  0.1916E-04
    -71.160     -9.037    56.320  0.3005E+03  0.0000E+00  0.1000E+01 193.426  1.0000  5.6452  0.9037E-06
    -70.870    -69.820    54.220  0.3005E+03  0.0000E+00  0.1000E+01 193.500  1.0000  5.6452  0.1128E-05
    -69.080     11.770    56.770  0.3005E+03  0.0000E+00  0.1000E+01 193.455  1.0000  5.6452  0.3694E-07
    -68.660     33.650    57.470  0.3005E+03  0.0000E+00  0.1000E+01 193.486  1.0000  5.6452  0.1554E-08